 argument  1 = /home/sebastian/СH3Cl+F=CH3F+Cl/inputs/acetone_env/CH3Cl_opt_freq.nw



============================== echo of input deck ==============================
start CH3Cl_opt_freq
title "CH3Cl acetone opt+freq"
memory total 2000 mb
echo

charge 0
geometry units angstrom
 C   0.000   0.000   0.000
 H   0.000   1.080   0.000
 H   1.020  -0.360   0.000
 H  -1.020  -0.360   0.000
 Cl  0.000   0.000   1.78
end

basis
    * library def2-svpd
end

dft
  xc b3lyp
  grid xfine
  iterations 200
end

cosmo
 dielec 25.2
 lineq  0
end

task dft optimize
task dft freq

#nwchem ~/СH3Cl+F=CH3F+Cl/inputs/acetone_env/CH3Cl_opt_freq.nw > ~/СH3Cl+F=CH3F+Cl/outputs/acetone_env/CH3Cl_opt_freq.out
#grep -i "Total DFT energy" "$HOME/СH3Cl+F=CH3F+Cl/outputs/acetone_env/CH3Cl_opt_freq.out"
================================================================================


                                         
                                         


             Northwest Computational Chemistry Package (NWChem) 7.2.2
             --------------------------------------------------------


                    Environmental Molecular Sciences Laboratory
                       Pacific Northwest National Laboratory
                                Richland, WA 99352

                              Copyright (c) 1994-2022
                       Pacific Northwest National Laboratory
                            Battelle Memorial Institute

             NWChem is an open-source computational chemistry package
                        distributed under the terms of the
                      Educational Community License (ECL) 2.0
             A copy of the license is included with this distribution
                              in the LICENSE.TXT file

                                  ACKNOWLEDGMENT
                                  --------------

            This software and its documentation were developed at the
            EMSL at Pacific Northwest National Laboratory, a multiprogram
            national laboratory, operated for the U.S. Department of Energy
            by Battelle under Contract Number DE-AC05-76RL01830. Support
            for this work was provided by the Department of Energy Office
            of Biological and Environmental Research, Office of Basic
            Energy Sciences, and the Office of Advanced Scientific Computing.


           Job information
           ---------------

    hostname        = DESKTOP-B8GSJV0
    program         = nwchem
    date            = Fri Sep 12 15:29:46 2025

    compiled        = Mon_Apr_01_11:12:32_2024
    source          = /build/nwchem-qbYJLs/nwchem-7.2.2/build-openmpi
    nwchem branch   = 7.2.2
    nwchem revision = N/A
    ga revision     = N/A
    use scalapack   = T
    input           = /home/sebastian/СH3Cl+F=CH3F+Cl/inputs/acetone_env/CH3Cl_opt_freq.nw
    prefix          = CH3Cl_opt_freq.
    data base       = ./CH3Cl_opt_freq.db
    status          = startup
    nproc           =        1
    time left       =     -1s



           Memory information
           ------------------

    heap     =   65535996 doubles =    500.0 Mbytes
    stack    =   65536001 doubles =    500.0 Mbytes
    global   =  131072000 doubles =   1000.0 Mbytes (distinct from heap & stack)
    total    =  262143997 doubles =   2000.0 Mbytes
    verify   = yes
    hardfail = no 


           Directory information
           ---------------------

  0 permanent = .
  0 scratch   = .




                                NWChem Input Module
                                -------------------


                              CH3Cl acetone opt+freq
                              ----------------------

 Scaling coordinates for geometry "geometry" by  1.889725989
 (inverse scale =  0.529177249)

 CS  symmetry detected

          ------
          auto-z
          ------
  Looking for out-of-plane bends
  no constraints, skipping    0.0000000000000000     
  no constraints, skipping    0.0000000000000000     


                             Geometry "geometry" -> ""
                             -------------------------

 Output coordinates in angstroms (scale by  1.889725989 to convert to a.u.)

  No.       Tag          Charge          X              Y              Z
 ---- ---------------- ---------- -------------- -------------- --------------
    1 C                    6.0000    -0.03034092     1.16353299     0.00000000
    2 H                    1.0000     1.04955059     1.17884072     0.00000000
    3 H                    1.0000    -0.39030476     1.15843041     1.02000000
    4 H                    1.0000    -0.39030476     1.15843041    -1.02000000
    5 Cl                  17.0000    -0.00511150    -0.61628820     0.00000000

      Atomic Mass 
      ----------- 

      C                 12.000000
      H                  1.007825
      Cl                34.968850


 Effective nuclear repulsion energy (a.u.)      52.9522163205

            Nuclear Dipole moment (a.u.) 
            ----------------------------
        X                 Y               Z
 ---------------- ---------------- ----------------
     0.0000000000     0.0000000000     0.0000000000

      Symmetry information
      --------------------

 Group name             Cs        
 Group number              2
 Group order               2
 No. of unique centers     4

      Symmetry unique atoms

     1    2    3    5



                                Z-matrix (autoz)
                                -------- 

 Units are Angstrom for bonds and degrees for angles

      Type          Name      I     J     K     L     M      Value
      ----------- --------  ----- ----- ----- ----- ----- ----------
    1 Stretch                  1     2                       1.08000
    2 Stretch                  1     3                       1.08167
    3 Stretch                  1     4                       1.08167
    4 Stretch                  1     5                       1.78000
    5 Bend                     2     1     3               109.44003
    6 Bend                     2     1     4               109.44003
    7 Bend                     2     1     5                90.00000
    8 Bend                     3     1     4               141.11993
    9 Bend                     3     1     5                90.00000
   10 Bend                     4     1     5                90.00000


            XYZ format geometry
            -------------------
     5
 geometry
 C                    -0.03034092     1.16353299     0.00000000
 H                     1.04955059     1.17884072     0.00000000
 H                    -0.39030476     1.15843041     1.02000000
 H                    -0.39030476     1.15843041    -1.02000000
 Cl                   -0.00511150    -0.61628820     0.00000000

 ==============================================================================
                                internuclear distances
 ------------------------------------------------------------------------------
       center one      |      center two      | atomic units |  angstroms
 ------------------------------------------------------------------------------
    2 H                |   1 C                |     2.04090  |     1.08000
    3 H                |   1 C                |     2.04405  |     1.08167
    4 H                |   1 C                |     2.04405  |     1.08167
    5 Cl               |   1 C                |     3.36371  |     1.78000
 ------------------------------------------------------------------------------
                         number of included internuclear distances:          4
 ==============================================================================



 ==============================================================================
                                 internuclear angles
 ------------------------------------------------------------------------------
        center 1       |       center 2       |       center 3       |  degrees
 ------------------------------------------------------------------------------
    2 H                |   1 C                |   3 H                |   109.44
    2 H                |   1 C                |   4 H                |   109.44
    2 H                |   1 C                |   5 Cl               |    90.00
    3 H                |   1 C                |   4 H                |   141.12
    3 H                |   1 C                |   5 Cl               |    90.00
    4 H                |   1 C                |   5 Cl               |    90.00
 ------------------------------------------------------------------------------
                            number of included internuclear angles:          6
 ==============================================================================





 Summary of "ao basis" -> "" (cartesian)
 ------------------------------------------------------------------------------
       Tag                 Description            Shells   Functions and Types
 ---------------- ------------------------------  ------  ---------------------
 *                         def2-svpd                  on all atoms 




                           NWChem Geometry Optimization
                           ----------------------------




                              CH3Cl acetone opt+freq


  no constraints, skipping    0.0000000000000000     
 maximum gradient threshold         (gmax) =   0.000450
 rms gradient threshold             (grms) =   0.000300
 maximum cartesian step threshold   (xmax) =   0.001800
 rms cartesian step threshold       (xrms) =   0.001200
 fixed trust radius                (trust) =   0.300000
 maximum step size to saddle      (sadstp) =   0.100000
 energy precision                  (eprec) =   5.0D-06
 maximum number of steps          (nptopt) =   40
 initial hessian option           (inhess) =    0
 line search option               (linopt) =    1
 hessian update option            (modupd) =    1
 saddle point option              (modsad) =    0
 initial eigen-mode to follow     (moddir) =    0
 initial variable to follow       (vardir) =    0
 follow first negative mode     (firstneg) =    T
 apply conjugacy                    (opcg) =    F
 source of zmatrix                         =   autoz   


          -------------------
          Energy Minimization
          -------------------


 Names of Z-matrix variables 
    1              2              3              4              5         
    6              7              8              9             10         

 Variables with the same non-blank name are constrained to be equal


 Using old Hessian from previous optimization

          --------
          Step   0
          --------


                         Geometry "geometry" -> "geometry"
                         ---------------------------------

 Output coordinates in angstroms (scale by  1.889725989 to convert to a.u.)

  No.       Tag          Charge          X              Y              Z
 ---- ---------------- ---------- -------------- -------------- --------------
    1 C                    6.0000    -0.03034092     1.16353299     0.00000000
    2 H                    1.0000     1.04955059     1.17884072     0.00000000
    3 H                    1.0000    -0.39030476     1.15843041     1.02000000
    4 H                    1.0000    -0.39030476     1.15843041    -1.02000000
    5 Cl                  17.0000    -0.00511150    -0.61628820     0.00000000

      Atomic Mass 
      ----------- 

      C                 12.000000
      H                  1.007825
      Cl                34.968850


 Effective nuclear repulsion energy (a.u.)      52.9522163205

            Nuclear Dipole moment (a.u.) 
            ----------------------------
        X                 Y               Z
 ---------------- ---------------- ----------------
     0.0000000000     0.0000000000     0.0000000000

      Symmetry information
      --------------------

 Group name             Cs        
 Group number              2
 Group order               2
 No. of unique centers     4

      Symmetry unique atoms

     1    2    3    5


                                 NWChem DFT Module
                                 -----------------


                              CH3Cl acetone opt+freq


                      Basis "ao basis" -> "ao basis" (cartesian)
                      -----
  C (Carbon)
  ----------
            Exponent  Coefficients 
       -------------- ---------------------------------------------------------
  1 S  1.23840169E+03  0.005457
  1 S  1.86290050E+02  0.040638
  1 S  4.22511763E+01  0.180256
  1 S  1.16765579E+01  0.463151
  1 S  3.59305065E+00  0.440872

  2 S  4.02451474E-01  1.000000

  3 S  1.30901827E-01  1.000000

  4 S  6.70535403E-02  1.000000

  5 P  9.46809706E+00  0.038388
  5 P  2.01035451E+00  0.211170
  5 P  5.47710047E-01  0.513282

  6 P  1.52686138E-01  1.000000

  7 D  8.00000000E-01  1.000000

  8 D  1.17131851E-01  1.000000

  H (Hydrogen)
  ------------
            Exponent  Coefficients 
       -------------- ---------------------------------------------------------
  1 S  1.30107010E+01  0.019682
  1 S  1.96225720E+00  0.137965
  1 S  4.44537960E-01  0.478319

  2 S  1.21949620E-01  1.000000

  3 P  8.00000000E-01  1.000000

  4 P  1.17040991E-01  1.000000

  Cl (Chlorine)
  -------------
            Exponent  Coefficients 
       -------------- ---------------------------------------------------------
  1 S  1.04498276E+04  0.001971
  1 S  1.57173652E+03  0.014755
  1 S  3.57120655E+02  0.066679
  1 S  1.00251859E+02  0.172289
  1 S  3.08127276E+01  0.158838

  2 S  5.19237894E+01 -0.100093
  2 S  5.70457610E+00  0.608418
  2 S  2.35083768E+00  0.543522

  3 S  4.46051247E-01  1.000000

  4 S  1.68488562E-01  1.000000

  5 S  5.53442294E-02  1.000000

  6 P  3.07667906E+02 -0.008780
  6 P  7.21020155E+01 -0.063563
  6 P  2.25326803E+01 -0.240164
  6 P  7.89917654E+00 -0.477989
  6 P  2.87672683E+00 -0.385159

  7 P  7.74593640E-01  1.000000

  8 P  2.10376997E-01  1.000000

  9 P  5.00462711E-02  1.000000

 10 D  6.50000000E-01  1.000000

 11 D  1.22848034E-01  1.000000



 Summary of "ao basis" -> "ao basis" (cartesian)
 ------------------------------------------------------------------------------
       Tag                 Description            Shells   Functions and Types
 ---------------- ------------------------------  ------  ---------------------
 C                         def2-svpd                 8       22   4s2p2d
 H                         def2-svpd                 4        8   2s2p
 Cl                        def2-svpd                11       29   5s4p2d




 Summary of "ao basis" -> "ao basis" (cartesian)
 ------------------------------------------------------------------------------
       Tag                 Description            Shells   Functions and Types
 ---------------- ------------------------------  ------  ---------------------
 C                         def2-svpd                 8       22   4s2p2d
 H                         def2-svpd                 4        8   2s2p
 Cl                        def2-svpd                11       29   5s4p2d


      Symmetry analysis of basis
      --------------------------

        a'         51
        a"         24

 in cosmo_initialize ...

 solvent parameters
 solvname_short: unkn    
 solvname_long:  unknown                            
 dielec:       25.2000

          ---------------
          -cosmo- solvent
          ---------------
 Cosmo: York-Karplus, doi: 10.1021/jp992097l
 dielectric constant -eps-     =  25.20
 screen = (eps-1)/(eps    )    =   0.96032
 surface charge correction     = lagrangian

 solvent accessible surface
 --------------------------

 ---------- ATOMIC COORDINATES (A.U.) ------------ VDWR(ANG.) --
     1   -0.05733602    2.19875853    0.00000000     2.000
     2    1.98336303    2.22768595    0.00000000     1.300
     3   -0.73756904    2.18911605    1.92752051     1.300
     4   -0.73756904    2.18911605   -1.92752051     1.300
     5   -0.00965934   -1.16461584    0.00000000     2.050
 number of segments per atom =         32
 number of   points per atom =         32
 atom (   nspa,  nppa )
 ----------------------
    1 (     16,     0 )       0
    2 (     14,     0 )       0
    3 (     12,     0 )       0
    4 (     12,     0 )       0
    5 (     26,     0 )       0
 number of -cosmo- surface points =       80
 molecular surface =     79.950 angstrom**2
 molecular volume  =     49.970 angstrom**3
 G(cav/disp)       =      1.260 kcal/mol
 -lineq- algorithm             =   0
 -bem- low  level              =   2
 -bem- from -octahedral-
 gaussian surface charge width =   4.50000
 degree of switching           =   1.00000
 switching function tolerance  =   0.00010
 atomic radii = 
 --------------
    1  6.000  2.000
    2  1.000  1.300
    3  1.000  1.300
    4  1.000  1.300
    5 17.000  2.050
 ...... end of -cosmo- initialization ......


  Caching 1-el integrals 

            General Information
            -------------------
          SCF calculation type: DFT
          Wavefunction type:  closed shell.
          No. of atoms     :     5
          No. of electrons :    26
           Alpha electrons :    13
            Beta electrons :    13
          Charge           :     0
          Spin multiplicity:     1
          Use of symmetry is: on ; symmetry adaption is: on 
          Maximum number of iterations: 200
          AO basis - number of functions:    75
                     number of shells:    31
          Convergence on energy requested:  1.00D-06
          Convergence on density requested:  1.00D-05
          Convergence on gradient requested:  5.00D-04

              XC Information
              --------------
                         B3LYP Method XC Potential
                     Hartree-Fock (Exact) Exchange  0.200          
                        Slater Exchange Functional  0.800 local    
                    Becke 1988 Exchange Functional  0.720 non-local
              Lee-Yang-Parr Correlation Functional  0.810          
                  VWN I RPA Correlation Functional  0.190 local    

             Grid Information
             ----------------
          Grid used for XC integration:  xfine     
          Radial quadrature: Mura-Knowles        
          Angular quadrature: Lebedev. 
          Tag              B.-S. Rad. Rad. Pts. Rad. Cut. Ang. Pts.
          ---              ---------- --------- --------- ---------
          C                   0.70      100          11.0      1454
          H                   0.35      100          10.0      1202
          Cl                  1.00      125          10.0      1454
          Grid pruning is: on 
          Number of quadrature shells:   425
          Spatial weights used:  Erf1

          Convergence Information
          -----------------------
          Convergence aids based upon iterative change in 
          total energy or number of iterations. 
          Levelshifting, if invoked, occurs when the 
          HOMO/LUMO gap drops below (HL_TOL):  1.00D-02
          DIIS, if invoked, will attempt to extrapolate 
          using up to (NFOCK): 10 stored Fock matrices.

                    Damping( 0%)  Levelshifting(0.5)       DIIS
                  --------------- ------------------- ---------------
          dE  on:    start            ASAP                start   
          dE off:    2 iters        200 iters           200 iters 


      Screening Tolerance Information
      -------------------------------
          Density screening/tol_rho:  1.00D-10
          AO Gaussian exp screening on grid/accAOfunc:  14
          CD Gaussian exp screening on grid/accCDfunc:  20
          XC Gaussian exp screening on grid/accXCfunc:  20
          Schwarz screening/accCoul:  1.00D-08


      Superposition of Atomic Density Guess
      -------------------------------------

 Sum of atomic energies:        -498.45248681

      Non-variational initial energy
      ------------------------------

 Total energy =    -499.314808
 1-e energy   =    -791.302369
 2-e energy   =     239.035345
 HOMO         =      -0.359385
 LUMO         =       0.039521


      Symmetry analysis of molecular orbitals - initial
      -------------------------------------------------

  Numbering of irreducible representations: 

     1 a'          2 a"      

  Orbital symmetries:

     1 a'          2 a'          3 a'          4 a'          5 a"      
     6 a'          7 a'          8 a'          9 a"         10 a'      
    11 a'         12 a"         13 a'         14 a'         15 a'      
    16 a'         17 a"         18 a'         19 a'         20 a'      
    21 a"         22 a'         23 a"      

  WARNING: movecs_in_org=atomic not equal to movecs_in=./CH3Cl_opt_freq.movecs
   Time after variat. SCF:      0.4
   Time prior to 1st pass:      0.4

 Integral file          = ./CH3Cl_opt_freq.aoints.0
 Record size in doubles =    65536    No. of integs per rec  =    43688
 Max. records in memory =       85    Max. records in file   =  1850209
 No. of bits per label  =        8    No. of bits per value  =       64


 #quartets = 8.417D+04 #integrals = 2.232D+06 #direct =  0.0% #cached =100.0%


 Grid_pts file          = ./CH3Cl_opt_freq.gridpts.0
 Record size in doubles =  12289        No. of grid_pts per rec  =   3070
 Max. records in memory =    223        Max. recs in file   =   9866986


           Memory utilization after 1st SCF pass: 
           Heap Space remaining (MW):       57.22            57221644
          Stack Space remaining (MW):       65.54            65535452

   convergence    iter        energy       DeltaE   RMS-Dens  Diis-err    time
 ---------------- ----- ----------------- --------- --------- ---------  ------
     COSMO gas phase
 d= 0,ls=0.0,diis     1   -499.8880442045 -5.53D+02  3.39D-02  3.70D-01     3.4
 d= 0,ls=0.0,diis     2   -499.8851720432  2.87D-03  8.74D-03  2.60D-01     5.6
 d= 0,ls=0.0,diis     3   -499.9138124499 -2.86D-02  2.72D-03  4.37D-02     8.1
 d= 0,ls=0.0,diis     4   -499.9196050845 -5.79D-03  5.55D-04  3.67D-04    10.2
 d= 0,ls=0.0,diis     5   -499.9196513254 -4.62D-05  9.34D-05  1.38D-05    12.4
  Resetting Diis
 d= 0,ls=0.0,diis     6   -499.9196529789 -1.65D-06  2.04D-05  9.08D-07    14.7
 d= 0,ls=0.0,diis     7   -499.9196530909 -1.12D-07  6.80D-06  1.06D-08    17.0

           Memory utilization after 1st SCF pass: 
           Heap Space remaining (MW):       57.22            57221308
          Stack Space remaining (MW):       65.54            65535452

   convergence    iter        energy       DeltaE   RMS-Dens  Diis-err    time
 ---------------- ----- ----------------- --------- --------- ---------  ------
     COSMO solvation phase
 d= 0,ls=0.0,diis     1   -499.9243257623 -4.67D-03  4.18D-03  1.82D-03    19.3
 d= 0,ls=0.0,diis     2   -499.9249526445 -6.27D-04  7.70D-04  9.24D-04    21.7
 d= 0,ls=0.0,diis     3   -499.9250668908 -1.14D-04  3.33D-04  1.85D-04    24.1
 d= 0,ls=0.0,diis     4   -499.9250893284 -2.24D-05  6.21D-05  1.10D-05    26.4
 d= 0,ls=0.0,diis     5   -499.9250907904 -1.46D-06  1.82D-05  3.38D-07    28.9
 d= 0,ls=0.0,diis     6   -499.9250908393 -4.90D-08  1.46D-06  1.99D-09    31.4


         Total DFT energy =     -499.925090839304
      One electron energy =     -793.145337567362
           Coulomb energy =      274.963900679734
    Exchange-Corr. energy =      -34.767991322368
 Nuclear repulsion energy =       52.952216320549

             COSMO energy =        0.072121050143

 Numeric. integr. density =       26.000000016009

     Total iterative time =     31.0s


                                   COSMO solvation results
                                   -----------------------

                 gas phase energy =      -499.919653090861
                 sol phase energy =      -499.925090839304
 (electrostatic) solvation energy =         0.005437748443 (    3.41 kcal/mol)

                  Occupations of the irreducible representations
                  ----------------------------------------------

                     irrep           alpha         beta
                     --------     --------     --------
                     a'               10.0         10.0
                     a"                3.0          3.0


                       DFT Final Molecular Orbital Analysis
                       ------------------------------------

 Vector    1  Occ=2.000000D+00  E=-1.015294D+02  Symmetry=a'
              MO Center= -5.1D-03, -6.2D-01, -1.1D-19, r^2= 3.2D-03
   Bfn.  Coefficient  Atom+Function         Bfn.  Coefficient  Atom+Function  
  ----- ------------  ---------------      ----- ------------  ---------------
    47      0.993385  5 Cl s                 48      0.030523  5 Cl s          
    49     -0.025466  5 Cl s          

 Vector    2  Occ=2.000000D+00  E=-1.024637D+01  Symmetry=a'
              MO Center= -3.0D-02,  1.2D+00,  2.4D-17, r^2= 2.8D-02
   Bfn.  Coefficient  Atom+Function         Bfn.  Coefficient  Atom+Function  
  ----- ------------  ---------------      ----- ------------  ---------------
     1      0.987249  1 C  s                  3     -0.086887  1 C  s          
     2      0.063651  1 C  s                  4     -0.047801  1 C  s          
    32      0.027847  3 H  s                 40      0.027847  4 H  s          

 Vector    3  Occ=2.000000D+00  E=-9.463031D+00  Symmetry=a'
              MO Center= -5.1D-03, -6.1D-01,  5.9D-17, r^2= 6.6D-02
   Bfn.  Coefficient  Atom+Function         Bfn.  Coefficient  Atom+Function  
  ----- ------------  ---------------      ----- ------------  ---------------
    48      1.013464  5 Cl s                 47     -0.311062  5 Cl s          
    49      0.071538  5 Cl s          

 Vector    4  Occ=2.000000D+00  E=-7.232517D+00  Symmetry=a'
              MO Center= -5.1D-03, -6.2D-01, -2.0D-16, r^2= 5.8D-02
   Bfn.  Coefficient  Atom+Function         Bfn.  Coefficient  Atom+Function  
  ----- ------------  ---------------      ----- ------------  ---------------
    53      0.980170  5 Cl py                56     -0.054021  5 Cl py         
     3     -0.029380  1 C  s          

 Vector    5  Occ=2.000000D+00  E=-7.223403D+00  Symmetry=a"
              MO Center= -5.1D-03, -6.2D-01,  4.0D-16, r^2= 5.8D-02
   Bfn.  Coefficient  Atom+Function         Bfn.  Coefficient  Atom+Function  
  ----- ------------  ---------------      ----- ------------  ---------------
    54      0.980937  5 Cl pz                57     -0.051361  5 Cl pz         

 Vector    6  Occ=2.000000D+00  E=-7.223335D+00  Symmetry=a'
              MO Center= -5.1D-03, -6.2D-01, -2.4D-16, r^2= 5.8D-02
   Bfn.  Coefficient  Atom+Function         Bfn.  Coefficient  Atom+Function  
  ----- ------------  ---------------      ----- ------------  ---------------
    52      0.980859  5 Cl px                55     -0.051266  5 Cl px         
    24     -0.026174  2 H  s          

 Vector    7  Occ=2.000000D+00  E=-8.764755D-01  Symmetry=a'
              MO Center=  3.9D-03,  2.4D-02,  2.8D-16, r^2= 1.1D+00
   Bfn.  Coefficient  Atom+Function         Bfn.  Coefficient  Atom+Function  
  ----- ------------  ---------------      ----- ------------  ---------------
    49      0.573307  5 Cl s                  3      0.539078  1 C  s          
    48     -0.425032  5 Cl s                 50      0.281795  5 Cl s          
     2      0.274379  1 C  s                 32     -0.264266  3 H  s          
    40     -0.264266  4 H  s                  4     -0.182037  1 C  s          
    22      0.153654  1 C  dzz                1     -0.136744  1 C  s          

 Vector    8  Occ=2.000000D+00  E=-6.649804D-01  Symmetry=a'
              MO Center=  3.8D-02,  4.0D-01,  4.1D-16, r^2= 2.0D+00
   Bfn.  Coefficient  Atom+Function         Bfn.  Coefficient  Atom+Function  
  ----- ------------  ---------------      ----- ------------  ---------------
     3      0.954184  1 C  s                 49     -0.478407  5 Cl s          
     2      0.422519  1 C  s                 32     -0.423957  3 H  s          
    40     -0.423957  4 H  s                 48      0.332905  5 Cl s          
     4     -0.278741  1 C  s                 22      0.264098  1 C  dzz        
    50     -0.216727  5 Cl s                  1     -0.199779  1 C  s          

 Vector    9  Occ=2.000000D+00  E=-5.001433D-01  Symmetry=a"
              MO Center= -1.7D-01,  9.6D-01, -9.4D-15, r^2= 1.4D+00
   Bfn.  Coefficient  Atom+Function         Bfn.  Coefficient  Atom+Function  
  ----- ------------  ---------------      ----- ------------  ---------------
     7      0.432679  1 C  pz                31      0.309242  3 H  s          
    39     -0.309242  4 H  s                 32      0.175081  3 H  s          
    40     -0.175081  4 H  s                 60      0.173675  5 Cl pz         
    19      0.156962  1 C  dxz               57      0.138597  5 Cl pz         
    54      0.082993  5 Cl pz                68      0.065993  5 Cl dyz        

 Vector   10  Occ=2.000000D+00  E=-4.544283D-01  Symmetry=a'
              MO Center=  2.0D-01,  8.3D-01,  7.3D-15, r^2= 1.5D+00
   Bfn.  Coefficient  Atom+Function         Bfn.  Coefficient  Atom+Function  
  ----- ------------  ---------------      ----- ------------  ---------------
     5      0.418789  1 C  px                 3      0.349257  1 C  s          
    23      0.339031  2 H  s                 58      0.228438  5 Cl px         
    32     -0.218231  3 H  s                 40     -0.218231  4 H  s          
    55      0.182945  5 Cl px                 8      0.161970  1 C  px         
    31     -0.148648  3 H  s                 39     -0.148648  4 H  s          

 Vector   11  Occ=2.000000D+00  E=-3.867582D-01  Symmetry=a'
              MO Center= -3.8D-02,  1.7D-01,  2.1D-15, r^2= 2.2D+00
   Bfn.  Coefficient  Atom+Function         Bfn.  Coefficient  Atom+Function  
  ----- ------------  ---------------      ----- ------------  ---------------
    59      0.457778  5 Cl py                56      0.382482  5 Cl py         
     6     -0.363587  1 C  py                 3     -0.348295  1 C  s          
    53      0.220597  5 Cl py                 9     -0.143054  1 C  py         
     2     -0.121983  1 C  s                 31     -0.106558  3 H  s          
    39     -0.106558  4 H  s                 32      0.102800  3 H  s          

 Vector   12  Occ=2.000000D+00  E=-3.033684D-01  Symmetry=a"
              MO Center= -2.4D-02, -4.2D-01,  6.9D-16, r^2= 1.6D+00
   Bfn.  Coefficient  Atom+Function         Bfn.  Coefficient  Atom+Function  
  ----- ------------  ---------------      ----- ------------  ---------------
    60      0.593039  5 Cl pz                57      0.466137  5 Cl pz         
    54      0.266650  5 Cl pz                 7     -0.183125  1 C  pz         
    31     -0.140385  3 H  s                 39      0.140385  4 H  s          
    32     -0.132687  3 H  s                 40      0.132687  4 H  s          
    63      0.093511  5 Cl pz                19     -0.062637  1 C  dxz        

 Vector   13  Occ=2.000000D+00  E=-2.957871D-01  Symmetry=a'
              MO Center=  3.5D-02, -3.0D-01, -9.0D-16, r^2= 1.8D+00
   Bfn.  Coefficient  Atom+Function         Bfn.  Coefficient  Atom+Function  
  ----- ------------  ---------------      ----- ------------  ---------------
    58      0.572655  5 Cl px                55      0.450315  5 Cl px         
    52      0.256994  5 Cl px                 5     -0.222596  1 C  px         
    23     -0.199574  2 H  s                 32      0.150025  3 H  s          
    40      0.150025  4 H  s                  3     -0.148950  1 C  s          
    31      0.095617  3 H  s                 39      0.095617  4 H  s          

 Vector   14  Occ=0.000000D+00  E=-3.209836D-03  Symmetry=a'
              MO Center= -2.4D-02, -2.5D-02, -4.7D-15, r^2= 6.0D+00
   Bfn.  Coefficient  Atom+Function         Bfn.  Coefficient  Atom+Function  
  ----- ------------  ---------------      ----- ------------  ---------------
     3      4.487593  1 C  s                  4     -2.459339  1 C  s          
    51      1.722831  5 Cl s                 32     -1.431853  3 H  s          
    40     -1.431853  4 H  s                 22      0.993217  1 C  dzz        
    24     -0.882928  2 H  s                 50     -0.852702  5 Cl s          
    17      0.642768  1 C  dxx                9     -0.454422  1 C  py         

 Vector   15  Occ=0.000000D+00  E= 1.013296D-02  Symmetry=a'
              MO Center=  5.2D-02,  6.4D-01, -4.3D-16, r^2= 7.3D+00
   Bfn.  Coefficient  Atom+Function         Bfn.  Coefficient  Atom+Function  
  ----- ------------  ---------------      ----- ------------  ---------------
     3      5.188687  1 C  s                  4     -3.289715  1 C  s          
    51     -1.713716  5 Cl s                 32     -1.589279  3 H  s          
    40     -1.589279  4 H  s                 22      1.193489  1 C  dzz        
    24     -1.055070  2 H  s                 17      0.897650  1 C  dxx        
    20      0.751375  1 C  dyy               50      0.551015  5 Cl s          

 Vector   16  Occ=0.000000D+00  E= 6.431417D-02  Symmetry=a"
              MO Center= -1.8D-01, -2.7D-01,  1.1D-13, r^2= 9.2D+00
   Bfn.  Coefficient  Atom+Function         Bfn.  Coefficient  Atom+Function  
  ----- ------------  ---------------      ----- ------------  ---------------
    63     -1.201965  5 Cl pz                32      1.117598  3 H  s          
    40     -1.117598  4 H  s                 38     -0.503371  3 H  pz         
    46     -0.503371  4 H  pz                10     -0.383134  1 C  pz         
    19      0.302833  1 C  dxz               74     -0.288705  5 Cl dyz        
    37     -0.249753  3 H  py                45      0.249753  4 H  py         

 Vector   17  Occ=0.000000D+00  E= 6.541442D-02  Symmetry=a'
              MO Center=  6.7D-01, -4.0D-01, -9.2D-14, r^2= 8.2D+00
   Bfn.  Coefficient  Atom+Function         Bfn.  Coefficient  Atom+Function  
  ----- ------------  ---------------      ----- ------------  ---------------
     4      1.337328  1 C  s                 24     -0.946011  2 H  s          
    61      0.943398  5 Cl px                 3     -0.883285  1 C  s          
    32      0.865800  3 H  s                 40      0.865800  4 H  s          
    62     -0.819775  5 Cl py                28      0.491825  2 H  px         
    22     -0.416412  1 C  dzz               38     -0.400317  3 H  pz         

 Vector   18  Occ=0.000000D+00  E= 6.869463D-02  Symmetry=a'
              MO Center= -4.7D-01, -9.3D-01,  2.1D-14, r^2= 8.7D+00
   Bfn.  Coefficient  Atom+Function         Bfn.  Coefficient  Atom+Function  
  ----- ------------  ---------------      ----- ------------  ---------------
     4     -3.034858  1 C  s                  3      2.970532  1 C  s          
    62      1.464668  5 Cl py                24     -1.346034  2 H  s          
    61      0.717507  5 Cl px                22      0.593829  1 C  dzz        
    32     -0.573121  3 H  s                 40     -0.573121  4 H  s          
    17      0.537894  1 C  dxx               28      0.532036  2 H  px         

 Vector   19  Occ=0.000000D+00  E= 9.431502D-02  Symmetry=a'
              MO Center= -4.9D-02,  1.5D+00, -4.6D-14, r^2= 8.4D+00
   Bfn.  Coefficient  Atom+Function         Bfn.  Coefficient  Atom+Function  
  ----- ------------  ---------------      ----- ------------  ---------------
     4    -10.825934  1 C  s                  3     10.023136  1 C  s          
    51      4.987654  5 Cl s                 32     -2.531464  3 H  s          
    40     -2.531464  4 H  s                 22      2.356235  1 C  dzz        
    17      1.826102  1 C  dxx               20      1.752932  1 C  dyy        
    62      1.678144  5 Cl py                24     -1.586342  2 H  s          

 Vector   20  Occ=0.000000D+00  E= 1.001355D-01  Symmetry=a'
              MO Center= -2.2D-01,  3.3D-01, -9.4D-15, r^2= 6.1D+00
   Bfn.  Coefficient  Atom+Function         Bfn.  Coefficient  Atom+Function  
  ----- ------------  ---------------      ----- ------------  ---------------
     3      2.188516  1 C  s                 62     -1.023480  5 Cl py         
    51     -0.970561  5 Cl s                 24     -0.591338  2 H  s          
    38      0.582772  3 H  pz                46     -0.582772  4 H  pz         
    32     -0.575914  3 H  s                 40     -0.575914  4 H  s          
    61      0.447442  5 Cl px                 4      0.431449  1 C  s          

 Vector   21  Occ=0.000000D+00  E= 1.245266D-01  Symmetry=a"
              MO Center=  1.3D-01,  6.1D-01,  1.2D-14, r^2= 5.4D+00
   Bfn.  Coefficient  Atom+Function         Bfn.  Coefficient  Atom+Function  
  ----- ------------  ---------------      ----- ------------  ---------------
    19      1.641211  1 C  dxz               32      1.047370  3 H  s          
    40     -1.047370  4 H  s                 30     -0.975662  2 H  pz         
    36     -0.809898  3 H  px                44      0.809898  4 H  px         
    72     -0.614893  5 Cl dxz               63     -0.265192  5 Cl pz         
     7     -0.154763  1 C  pz                66     -0.153892  5 Cl dxz        

 Vector   22  Occ=0.000000D+00  E= 1.647714D-01  Symmetry=a"
              MO Center= -2.5D-02,  4.9D-01, -7.3D-14, r^2= 7.9D+00
   Bfn.  Coefficient  Atom+Function         Bfn.  Coefficient  Atom+Function  
  ----- ------------  ---------------      ----- ------------  ---------------
    19      1.193488  1 C  dxz               30     -1.074322  2 H  pz         
    38     -1.021601  3 H  pz                46     -1.021601  4 H  pz         
    32      0.981621  3 H  s                 40     -0.981621  4 H  s          
    63      0.762875  5 Cl pz                74     -0.471138  5 Cl dyz        
    60     -0.405829  5 Cl pz                 7      0.273937  1 C  pz         

 Vector   23  Occ=0.000000D+00  E= 1.745563D-01  Symmetry=a'
              MO Center=  3.1D-01,  5.8D-01,  1.2D-14, r^2= 7.8D+00
   Bfn.  Coefficient  Atom+Function         Bfn.  Coefficient  Atom+Function  
  ----- ------------  ---------------      ----- ------------  ---------------
     3      5.232019  1 C  s                 28      1.499563  2 H  px         
    32     -1.428125  3 H  s                 40     -1.428125  4 H  s          
    51     -1.399891  5 Cl s                 24     -1.316888  2 H  s          
     4     -1.111945  1 C  s                 22      1.089600  1 C  dzz        
    62     -0.767090  5 Cl py                61     -0.634759  5 Cl px         

 Vector   24  Occ=0.000000D+00  E= 1.993073D-01  Symmetry=a'
              MO Center= -1.0D-01,  1.3D-01,  6.0D-14, r^2= 9.1D+00
   Bfn.  Coefficient  Atom+Function         Bfn.  Coefficient  Atom+Function  
  ----- ------------  ---------------      ----- ------------  ---------------
     3     21.035253  1 C  s                 32     -8.410823  3 H  s          
    40     -8.410823  4 H  s                 51     -5.049219  5 Cl s          
    22      4.856992  1 C  dzz               24     -4.805646  2 H  s          
    17      2.650216  1 C  dxx               62     -2.521591  5 Cl py         
     4     -2.219460  1 C  s                 38      2.160244  3 H  pz         

 Vector   25  Occ=0.000000D+00  E= 2.303354D-01  Symmetry=a"
              MO Center= -2.6D-01,  4.9D-01,  2.1D-14, r^2= 5.4D+00
   Bfn.  Coefficient  Atom+Function         Bfn.  Coefficient  Atom+Function  
  ----- ------------  ---------------      ----- ------------  ---------------
    32      1.958809  3 H  s                 40     -1.958809  4 H  s          
    19      1.058051  1 C  dxz               74     -1.040388  5 Cl dyz        
    37      0.827704  3 H  py                45     -0.827704  4 H  py         
    38     -0.774960  3 H  pz                46     -0.774960  4 H  pz         
    10     -0.721044  1 C  pz                30     -0.510137  2 H  pz         

 Vector   26  Occ=0.000000D+00  E= 2.375450D-01  Symmetry=a'
              MO Center=  3.0D-01,  2.2D-01, -5.1D-15, r^2= 5.1D+00
   Bfn.  Coefficient  Atom+Function         Bfn.  Coefficient  Atom+Function  
  ----- ------------  ---------------      ----- ------------  ---------------
     3      5.010793  1 C  s                 32     -3.171944  3 H  s          
    40     -3.171944  4 H  s                 22      1.353227  1 C  dzz        
    71     -1.137734  5 Cl dxy                4     -0.953592  1 C  s          
    24      0.838320  2 H  s                 38      0.722713  3 H  pz         
    46     -0.722713  4 H  pz                29      0.654835  2 H  py         

 Vector   27  Occ=0.000000D+00  E= 2.586613D-01  Symmetry=a'
              MO Center= -1.6D-01,  8.8D-02, -2.3D-14, r^2= 5.1D+00
   Bfn.  Coefficient  Atom+Function         Bfn.  Coefficient  Atom+Function  
  ----- ------------  ---------------      ----- ------------  ---------------
     3      1.146403  1 C  s                 24     -1.151013  2 H  s          
    75      0.841011  5 Cl dzz               51     -0.801428  5 Cl s          
    18     -0.719618  1 C  dxy               70     -0.644644  5 Cl dxx        
     4      0.581722  1 C  s                 17      0.551290  1 C  dxx        
    28      0.518878  2 H  px                71      0.432125  5 Cl dxy        

 Vector   28  Occ=0.000000D+00  E= 2.672318D-01  Symmetry=a"
              MO Center=  1.7D-01,  8.0D-02, -2.2D-14, r^2= 5.4D+00
   Bfn.  Coefficient  Atom+Function         Bfn.  Coefficient  Atom+Function  
  ----- ------------  ---------------      ----- ------------  ---------------
    72      1.588032  5 Cl dxz               30     -0.839711  2 H  pz         
    21     -0.814471  1 C  dyz               19      0.605751  1 C  dxz        
    36     -0.535091  3 H  px                44      0.535091  4 H  px         
    32      0.312922  3 H  s                 40     -0.312922  4 H  s          
    10      0.282600  1 C  pz                37      0.275795  3 H  py         

 Vector   29  Occ=0.000000D+00  E= 2.766850D-01  Symmetry=a'
              MO Center= -1.6D-01,  6.9D-01,  1.1D-12, r^2= 8.1D+00
   Bfn.  Coefficient  Atom+Function         Bfn.  Coefficient  Atom+Function  
  ----- ------------  ---------------      ----- ------------  ---------------
     3     28.959621  1 C  s                 32    -11.970258  3 H  s          
    40    -11.970258  4 H  s                  4     -8.469477  1 C  s          
    24     -6.194653  2 H  s                 22      5.468189  1 C  dzz        
    51      4.743713  5 Cl s                 38      3.187868  3 H  pz         
    46     -3.187868  4 H  pz                17      2.778929  1 C  dxx        

 Vector   30  Occ=0.000000D+00  E= 3.239309D-01  Symmetry=a'
              MO Center=  8.9D-02,  5.1D-02,  2.7D-14, r^2= 9.0D+00
   Bfn.  Coefficient  Atom+Function         Bfn.  Coefficient  Atom+Function  
  ----- ------------  ---------------      ----- ------------  ---------------
     3     15.915635  1 C  s                  4     -7.719193  1 C  s          
    32     -7.493202  3 H  s                 40     -7.493202  4 H  s          
    38      2.787713  3 H  pz                46     -2.787713  4 H  pz         
    22      2.598036  1 C  dzz               20      2.119630  1 C  dyy        
    17      1.920341  1 C  dxx                8     -1.881250  1 C  px         

 Vector   31  Occ=0.000000D+00  E= 3.328349D-01  Symmetry=a"
              MO Center= -2.8D-01,  8.2D-01,  4.1D-14, r^2= 6.5D+00
   Bfn.  Coefficient  Atom+Function         Bfn.  Coefficient  Atom+Function  
  ----- ------------  ---------------      ----- ------------  ---------------
    19      2.551903  1 C  dxz               36     -1.728653  3 H  px         
    44      1.728653  4 H  px                74      1.248354  5 Cl dyz        
    38     -0.825082  3 H  pz                46     -0.825082  4 H  pz         
    37      0.772982  3 H  py                45     -0.772982  4 H  py         
    63      0.647806  5 Cl pz                21     -0.404232  1 C  dyz        

 Vector   32  Occ=0.000000D+00  E= 3.345081D-01  Symmetry=a'
              MO Center=  4.0D-01,  6.6D-01,  1.7D-14, r^2= 7.8D+00
   Bfn.  Coefficient  Atom+Function         Bfn.  Coefficient  Atom+Function  
  ----- ------------  ---------------      ----- ------------  ---------------
     3     13.083965  1 C  s                  4     -7.106540  1 C  s          
    24     -6.045002  2 H  s                 22      3.228457  1 C  dzz        
    32     -3.116291  3 H  s                 40     -3.116291  4 H  s          
    28      2.963598  2 H  px                 8      2.219549  1 C  px         
    20      1.839521  1 C  dyy               29      1.597104  2 H  py         

 Vector   33  Occ=0.000000D+00  E= 3.519281D-01  Symmetry=a"
              MO Center= -2.5D-02,  4.7D-01, -3.1D-13, r^2= 7.3D+00
   Bfn.  Coefficient  Atom+Function         Bfn.  Coefficient  Atom+Function  
  ----- ------------  ---------------      ----- ------------  ---------------
    32      3.767079  3 H  s                 40     -3.767079  4 H  s          
    10     -2.446311  1 C  pz                74     -1.906388  5 Cl dyz        
    30      1.477878  2 H  pz                38     -1.441887  3 H  pz         
    46     -1.441887  4 H  pz                37     -1.206942  3 H  py         
    45      1.206942  4 H  py                19     -1.107764  1 C  dxz        

 Vector   34  Occ=0.000000D+00  E= 3.627830D-01  Symmetry=a'
              MO Center= -2.3D-01,  1.3D-01,  2.5D-15, r^2= 7.5D+00
   Bfn.  Coefficient  Atom+Function         Bfn.  Coefficient  Atom+Function  
  ----- ------------  ---------------      ----- ------------  ---------------
    24      5.884896  2 H  s                 50     -3.071565  5 Cl s          
     4     -2.814286  1 C  s                  9     -2.136264  1 C  py         
    51      2.141464  5 Cl s                 73     -2.038701  5 Cl dyy        
    17     -1.805923  1 C  dxx               20      1.516022  1 C  dyy        
    59     -1.468478  5 Cl py                32      1.391878  3 H  s          

 Vector   35  Occ=0.000000D+00  E= 3.735797D-01  Symmetry=a'
              MO Center= -3.1D-01,  1.5D+00,  5.0D-16, r^2= 7.3D+00
   Bfn.  Coefficient  Atom+Function         Bfn.  Coefficient  Atom+Function  
  ----- ------------  ---------------      ----- ------------  ---------------
     4     13.416299  1 C  s                 51     -7.094319  5 Cl s          
    32     -4.887595  3 H  s                 40     -4.887595  4 H  s          
     3      4.012480  1 C  s                 20     -2.403696  1 C  dyy        
    17     -2.365282  1 C  dxx               50      2.265550  5 Cl s          
    62     -2.183712  5 Cl py                38      1.379009  3 H  pz         

 Vector   36  Occ=0.000000D+00  E= 3.870390D-01  Symmetry=a'
              MO Center=  3.6D-01,  1.8D-01, -3.7D-16, r^2= 7.5D+00
   Bfn.  Coefficient  Atom+Function         Bfn.  Coefficient  Atom+Function  
  ----- ------------  ---------------      ----- ------------  ---------------
     3      3.769359  1 C  s                 71      2.366893  5 Cl dxy        
     4     -2.270243  1 C  s                 17      1.631786  1 C  dxx        
    28     -1.504318  2 H  px                32     -1.335357  3 H  s          
    40     -1.335357  4 H  s                 61      1.238877  5 Cl px         
     8     -1.084999  1 C  px                29      0.958595  2 H  py         

 Vector   37  Occ=0.000000D+00  E= 4.046466D-01  Symmetry=a"
              MO Center= -4.6D-01,  8.7D-01, -2.2D-13, r^2= 6.7D+00
   Bfn.  Coefficient  Atom+Function         Bfn.  Coefficient  Atom+Function  
  ----- ------------  ---------------      ----- ------------  ---------------
    32     -3.494054  3 H  s                 40      3.494054  4 H  s          
    10      3.317429  1 C  pz                19      3.102259  1 C  dxz        
    38      2.211184  3 H  pz                46      2.211184  4 H  pz         
    36     -2.011375  3 H  px                44      2.011375  4 H  px         
    74     -1.449219  5 Cl dyz               63     -0.812070  5 Cl pz         

 Vector   38  Occ=0.000000D+00  E= 4.331653D-01  Symmetry=a'
              MO Center= -4.9D-02,  7.1D-01,  3.4D-14, r^2= 6.7D+00
   Bfn.  Coefficient  Atom+Function         Bfn.  Coefficient  Atom+Function  
  ----- ------------  ---------------      ----- ------------  ---------------
    24     -2.577463  2 H  s                  3      2.378192  1 C  s          
    20     -1.894672  1 C  dyy               50      1.859984  5 Cl s          
     9     -1.539943  1 C  py                75      1.454998  5 Cl dzz        
    37      1.443368  3 H  py                45      1.443368  4 H  py         
    51     -1.179833  5 Cl s                 29      1.077360  2 H  py         

 Vector   39  Occ=0.000000D+00  E= 4.467677D-01  Symmetry=a"
              MO Center=  7.5D-01,  1.3D+00, -4.8D-13, r^2= 5.7D+00
   Bfn.  Coefficient  Atom+Function         Bfn.  Coefficient  Atom+Function  
  ----- ------------  ---------------      ----- ------------  ---------------
    19     10.771531  1 C  dxz               32     10.440945  3 H  s          
    40    -10.440945  4 H  s                 30     -4.809659  2 H  pz         
    10     -3.527462  1 C  pz                38     -3.345417  3 H  pz         
    46     -3.345417  4 H  pz                21      2.157527  1 C  dyz        
    36     -1.719185  3 H  px                44      1.719185  4 H  px         

 Vector   40  Occ=0.000000D+00  E= 4.561131D-01  Symmetry=a'
              MO Center= -8.1D-02,  1.1D+00, -9.0D-15, r^2= 7.1D+00
   Bfn.  Coefficient  Atom+Function         Bfn.  Coefficient  Atom+Function  
  ----- ------------  ---------------      ----- ------------  ---------------
     3     21.131407  1 C  s                 24    -12.874513  2 H  s          
     4     -4.231379  1 C  s                 28      4.150830  2 H  px         
    17      4.129370  1 C  dxx               18     -3.243545  1 C  dxy        
    32     -2.749274  3 H  s                 40     -2.749274  4 H  s          
    38      2.396928  3 H  pz                46     -2.396928  4 H  pz         

 Vector   41  Occ=0.000000D+00  E= 4.655394D-01  Symmetry=a'
              MO Center=  1.8D-01,  7.6D-01,  4.8D-13, r^2= 6.7D+00
   Bfn.  Coefficient  Atom+Function         Bfn.  Coefficient  Atom+Function  
  ----- ------------  ---------------      ----- ------------  ---------------
     3     23.940744  1 C  s                 24    -14.748383  2 H  s          
    28      4.938344  2 H  px                32     -4.674399  3 H  s          
    40     -4.674399  4 H  s                 17      4.532316  1 C  dxx        
    18      4.301019  1 C  dxy                4     -3.803772  1 C  s          
    29     -2.631882  2 H  py                 8      2.573532  1 C  px         

 Vector   42  Occ=0.000000D+00  E= 4.829775D-01  Symmetry=a"
              MO Center= -7.7D-02,  7.9D-01, -5.2D-13, r^2= 6.5D+00
   Bfn.  Coefficient  Atom+Function         Bfn.  Coefficient  Atom+Function  
  ----- ------------  ---------------      ----- ------------  ---------------
    21      7.497072  1 C  dyz               32     -5.203170  3 H  s          
    40      5.203170  4 H  s                 19     -3.977771  1 C  dxz        
    37     -3.497461  3 H  py                45      3.497461  4 H  py         
    10      1.901415  1 C  pz                38      1.826861  3 H  pz         
    46      1.826861  4 H  pz                30      1.507668  2 H  pz         

 Vector   43  Occ=0.000000D+00  E= 5.087371D-01  Symmetry=a'
              MO Center=  1.9D-01,  9.5D-01, -3.1D-13, r^2= 6.4D+00
   Bfn.  Coefficient  Atom+Function         Bfn.  Coefficient  Atom+Function  
  ----- ------------  ---------------      ----- ------------  ---------------
     3     67.583149  1 C  s                 32    -36.573017  3 H  s          
    40    -36.573017  4 H  s                 22     19.349750  1 C  dzz        
    24     -9.954889  2 H  s                  4     -7.897942  1 C  s          
    38      5.873102  3 H  pz                46     -5.873102  4 H  pz         
    36     -5.755133  3 H  px                44     -5.755133  4 H  px         

 Vector   44  Occ=0.000000D+00  E= 8.292839D-01  Symmetry=a"
              MO Center= -1.9D-01,  8.7D-01, -8.0D-14, r^2= 3.5D+00
   Bfn.  Coefficient  Atom+Function         Bfn.  Coefficient  Atom+Function  
  ----- ------------  ---------------      ----- ------------  ---------------
    32      6.314849  3 H  s                 40     -6.314849  4 H  s          
    10     -5.010939  1 C  pz                38     -1.859637  3 H  pz         
    46     -1.859637  4 H  pz                36      1.159336  3 H  px         
    44     -1.159336  4 H  px                 7      0.879179  1 C  pz         
    19     -0.762496  1 C  dxz               31     -0.496718  3 H  s          

 Vector   45  Occ=0.000000D+00  E= 8.619682D-01  Symmetry=a'
              MO Center= -1.8D-01,  3.1D-01, -5.5D-14, r^2= 3.8D+00
   Bfn.  Coefficient  Atom+Function         Bfn.  Coefficient  Atom+Function  
  ----- ------------  ---------------      ----- ------------  ---------------
    24      9.364044  2 H  s                 32     -5.354602  3 H  s          
    40     -5.354602  4 H  s                  8     -5.045959  1 C  px         
    22      3.982093  1 C  dzz               17     -2.823537  1 C  dxx        
    28     -2.499491  2 H  px                36     -1.659169  3 H  px         
    44     -1.659169  4 H  px                 3     -1.336718  1 C  s          

 Vector   46  Occ=0.000000D+00  E= 8.764133D-01  Symmetry=a'
              MO Center=  2.6D-01,  6.0D-01, -5.2D-15, r^2= 3.7D+00
   Bfn.  Coefficient  Atom+Function         Bfn.  Coefficient  Atom+Function  
  ----- ------------  ---------------      ----- ------------  ---------------
    24     -7.790465  2 H  s                  3      7.123760  1 C  s          
     8      3.498018  1 C  px                28      2.665723  2 H  px         
    22      2.589088  1 C  dzz               32     -0.795359  3 H  s          
    40     -0.795359  4 H  s                 38     -0.774463  3 H  pz         
    46      0.774463  4 H  pz                 5     -0.706458  1 C  px         

 Vector   47  Occ=0.000000D+00  E= 9.019040D-01  Symmetry=a'
              MO Center= -3.3D-02,  4.8D-01,  5.0D-14, r^2= 4.6D+00
   Bfn.  Coefficient  Atom+Function         Bfn.  Coefficient  Atom+Function  
  ----- ------------  ---------------      ----- ------------  ---------------
     3     56.001705  1 C  s                 32    -25.338061  3 H  s          
    40    -25.338061  4 H  s                 24    -14.725619  2 H  s          
    22     10.898433  1 C  dzz                4     -9.012260  1 C  s          
    38      5.305096  3 H  pz                46     -5.305096  4 H  pz         
    17      5.138022  1 C  dxx               20      4.167261  1 C  dyy        

 Vector   48  Occ=0.000000D+00  E= 9.307741D-01  Symmetry=a"
              MO Center=  3.7D-02, -3.5D-01,  3.3D-13, r^2= 3.1D+00
   Bfn.  Coefficient  Atom+Function         Bfn.  Coefficient  Atom+Function  
  ----- ------------  ---------------      ----- ------------  ---------------
    32      5.804097  3 H  s                 40     -5.804097  4 H  s          
    19      4.957321  1 C  dxz               10     -4.258469  1 C  pz         
    38     -2.078461  3 H  pz                46     -2.078461  4 H  pz         
    30     -1.737869  2 H  pz                21     -1.694982  1 C  dyz        
    74      1.677183  5 Cl dyz               68     -1.504382  5 Cl dyz        

 Vector   49  Occ=0.000000D+00  E= 9.497079D-01  Symmetry=a'
              MO Center= -5.8D-02,  5.6D-01,  1.4D-13, r^2= 3.6D+00
   Bfn.  Coefficient  Atom+Function         Bfn.  Coefficient  Atom+Function  
  ----- ------------  ---------------      ----- ------------  ---------------
     3     41.409232  1 C  s                 32    -16.499783  3 H  s          
    40    -16.499783  4 H  s                 24     -9.023095  2 H  s          
     4     -7.517710  1 C  s                 22      7.073417  1 C  dzz        
     9     -5.518466  1 C  py                50     -5.412802  5 Cl s          
    20      3.797143  1 C  dyy               38      3.565674  3 H  pz         

 Vector   50  Occ=0.000000D+00  E= 9.768958D-01  Symmetry=a"
              MO Center= -2.3D-03, -5.0D-01, -8.4D-14, r^2= 1.9D+00
   Bfn.  Coefficient  Atom+Function         Bfn.  Coefficient  Atom+Function  
  ----- ------------  ---------------      ----- ------------  ---------------
    66      1.727512  5 Cl dxz               10     -1.395583  1 C  pz         
    72     -1.033929  5 Cl dxz               32      0.984409  3 H  s          
    40     -0.984409  4 H  s                 19     -0.662450  1 C  dxz        
    36      0.513720  3 H  px                44     -0.513720  4 H  px         
    30      0.494816  2 H  pz                68      0.372706  5 Cl dyz        

 Vector   51  Occ=0.000000D+00  E= 9.809805D-01  Symmetry=a'
              MO Center=  5.8D-02, -2.1D-01,  8.6D-16, r^2= 2.7D+00
   Bfn.  Coefficient  Atom+Function         Bfn.  Coefficient  Atom+Function  
  ----- ------------  ---------------      ----- ------------  ---------------
     3     12.303781  1 C  s                 24     -7.031048  2 H  s          
    32     -4.340769  3 H  s                 40     -4.340769  4 H  s          
     8      2.373205  1 C  px                51     -2.087191  5 Cl s          
     4      2.035164  1 C  s                 28      2.016637  2 H  px         
    22      1.683405  1 C  dzz               17      1.050767  1 C  dxx        

 Vector   52  Occ=0.000000D+00  E= 1.017059D+00  Symmetry=a'
              MO Center= -1.4D-01,  8.0D-01, -3.2D-14, r^2= 4.4D+00
   Bfn.  Coefficient  Atom+Function         Bfn.  Coefficient  Atom+Function  
  ----- ------------  ---------------      ----- ------------  ---------------
     3     25.465554  1 C  s                 32    -11.899926  3 H  s          
    40    -11.899926  4 H  s                 24     -7.668534  2 H  s          
     4      6.844156  1 C  s                 51     -4.987988  5 Cl s          
    38      3.224896  3 H  pz                46     -3.224896  4 H  pz         
     2     -1.969077  1 C  s                 22      1.876437  1 C  dzz        

 Vector   53  Occ=0.000000D+00  E= 1.054979D+00  Symmetry=a'
              MO Center= -2.0D-01,  3.6D-01, -6.3D-14, r^2= 4.6D+00
   Bfn.  Coefficient  Atom+Function         Bfn.  Coefficient  Atom+Function  
  ----- ------------  ---------------      ----- ------------  ---------------
     4      7.725294  1 C  s                  3     -3.722954  1 C  s          
    17     -3.661608  1 C  dxx               24      3.605075  2 H  s          
    50      3.335836  5 Cl s                 20     -3.002542  1 C  dyy        
    49     -1.899076  5 Cl s                  2     -1.713151  1 C  s          
    73     -1.357276  5 Cl dyy                8     -1.316777  1 C  px         

 Vector   54  Occ=0.000000D+00  E= 1.081320D+00  Symmetry=a'
              MO Center=  1.9D-01, -7.2D-02, -6.6D-14, r^2= 4.0D+00
   Bfn.  Coefficient  Atom+Function         Bfn.  Coefficient  Atom+Function  
  ----- ------------  ---------------      ----- ------------  ---------------
     3     18.828352  1 C  s                 32    -12.717490  3 H  s          
    40    -12.717490  4 H  s                 22      6.345429  1 C  dzz        
    51     -3.873593  5 Cl s                 49      2.152138  5 Cl s          
     8     -2.088016  1 C  px                 4      1.886218  1 C  s          
    36     -1.856417  3 H  px                44     -1.856417  4 H  px         

 Vector   55  Occ=0.000000D+00  E= 1.196051D+00  Symmetry=a'
              MO Center=  5.1D-02, -1.3D-01,  3.4D-15, r^2= 3.1D+00
   Bfn.  Coefficient  Atom+Function         Bfn.  Coefficient  Atom+Function  
  ----- ------------  ---------------      ----- ------------  ---------------
    24      8.306517  2 H  s                  3     -6.608829  1 C  s          
    28     -2.843165  2 H  px                 8     -2.476959  1 C  px         
    58     -1.916444  5 Cl px                18     -1.417085  1 C  dxy        
    71     -1.339138  5 Cl dxy               55      1.260128  5 Cl px         
    51      0.671240  5 Cl s                 32     -0.532613  3 H  s          

 Vector   56  Occ=0.000000D+00  E= 1.198157D+00  Symmetry=a"
              MO Center= -8.8D-02,  2.4D-01,  8.3D-14, r^2= 3.5D+00
   Bfn.  Coefficient  Atom+Function         Bfn.  Coefficient  Atom+Function  
  ----- ------------  ---------------      ----- ------------  ---------------
    19      3.241064  1 C  dxz               21      2.161285  1 C  dyz        
    60      1.898083  5 Cl pz                32     -1.343997  3 H  s          
    40      1.343997  4 H  s                 36     -1.308234  3 H  px         
    44      1.308234  4 H  px                74      1.128168  5 Cl dyz        
    57     -1.110864  5 Cl pz                30     -0.758864  2 H  pz         

 Vector   57  Occ=0.000000D+00  E= 1.213943D+00  Symmetry=a"
              MO Center=  7.1D-04,  7.1D-01,  1.7D-13, r^2= 3.4D+00
   Bfn.  Coefficient  Atom+Function         Bfn.  Coefficient  Atom+Function  
  ----- ------------  ---------------      ----- ------------  ---------------
    32     10.440071  3 H  s                 40    -10.440071  4 H  s          
    19      8.813844  1 C  dxz               10     -6.651147  1 C  pz         
    38     -2.986160  3 H  pz                46     -2.986160  4 H  pz         
    30     -2.573053  2 H  pz                36     -1.243971  3 H  px         
    44      1.243971  4 H  px                74     -0.772171  5 Cl dyz        

 Vector   58  Occ=0.000000D+00  E= 1.304856D+00  Symmetry=a'
              MO Center=  1.5D-01,  2.3D-01,  6.9D-14, r^2= 4.0D+00
   Bfn.  Coefficient  Atom+Function         Bfn.  Coefficient  Atom+Function  
  ----- ------------  ---------------      ----- ------------  ---------------
     3     31.695621  1 C  s                 32    -16.315252  3 H  s          
    40    -16.315252  4 H  s                 22      9.835997  1 C  dzz        
    24     -8.159920  2 H  s                  4     -6.875032  1 C  s          
    17      4.787720  1 C  dxx               20      4.022297  1 C  dyy        
    38      2.784694  3 H  pz                46     -2.784694  4 H  pz         

 Vector   59  Occ=0.000000D+00  E= 1.438096D+00  Symmetry=a"
              MO Center= -1.8D-01,  8.8D-01, -1.6D-14, r^2= 2.0D+00
   Bfn.  Coefficient  Atom+Function         Bfn.  Coefficient  Atom+Function  
  ----- ------------  ---------------      ----- ------------  ---------------
    19      2.285871  1 C  dxz               32      1.283407  3 H  s          
    40     -1.283407  4 H  s                 21     -1.125418  1 C  dyz        
    10     -0.985245  1 C  pz                15      0.785435  1 C  dyz        
    30     -0.520808  2 H  pz                36     -0.515192  3 H  px         
    44      0.515192  4 H  px                34      0.509714  3 H  py         

 Vector   60  Occ=0.000000D+00  E= 1.446557D+00  Symmetry=a'
              MO Center=  3.2D-01,  9.4D-01, -5.4D-16, r^2= 1.9D+00
   Bfn.  Coefficient  Atom+Function         Bfn.  Coefficient  Atom+Function  
  ----- ------------  ---------------      ----- ------------  ---------------
     3      4.615746  1 C  s                 32     -1.625685  3 H  s          
    40     -1.625685  4 H  s                 24     -1.085278  2 H  s          
    22      1.054094  1 C  dzz                4     -0.934513  1 C  s          
    50     -0.812714  5 Cl s                 12      0.777639  1 C  dxy        
     9     -0.678433  1 C  py                26      0.653630  2 H  py         

 Vector   61  Occ=0.000000D+00  E= 1.547801D+00  Symmetry=a'
              MO Center=  3.5D-02,  1.3D-01,  3.4D-14, r^2= 3.2D+00
   Bfn.  Coefficient  Atom+Function         Bfn.  Coefficient  Atom+Function  
  ----- ------------  ---------------      ----- ------------  ---------------
     3     14.936359  1 C  s                 32    -10.874526  3 H  s          
    40    -10.874526  4 H  s                 22      6.350528  1 C  dzz        
    24     -5.404117  2 H  s                 50      5.138727  5 Cl s          
    59      3.883036  5 Cl py                 4     -3.722398  1 C  s          
     9      3.451059  1 C  py                17      3.353713  1 C  dxx        

 Vector   62  Occ=0.000000D+00  E= 1.592536D+00  Symmetry=a"
              MO Center= -1.1D-01,  1.1D+00, -3.0D-15, r^2= 2.1D+00
   Bfn.  Coefficient  Atom+Function         Bfn.  Coefficient  Atom+Function  
  ----- ------------  ---------------      ----- ------------  ---------------
    19      3.296465  1 C  dxz               30     -1.637127  2 H  pz         
    32      0.958040  3 H  s                 40     -0.958040  4 H  s          
    10      0.950098  1 C  pz                21     -0.742273  1 C  dyz        
    13     -0.585765  1 C  dxz               33     -0.582411  3 H  px         
    41      0.582411  4 H  px                36     -0.465800  3 H  px         

 Vector   63  Occ=0.000000D+00  E= 1.821925D+00  Symmetry=a"
              MO Center=  4.1D-01,  1.1D+00, -2.7D-14, r^2= 1.9D+00
   Bfn.  Coefficient  Atom+Function         Bfn.  Coefficient  Atom+Function  
  ----- ------------  ---------------      ----- ------------  ---------------
    10      4.937476  1 C  pz                32     -4.771184  3 H  s          
    40      4.771184  4 H  s                 19     -1.587876  1 C  dxz        
    38      1.454267  3 H  pz                46      1.454267  4 H  pz         
    21     -0.968299  1 C  dyz               27     -0.880406  2 H  pz         
    30      0.704533  2 H  pz                31     -0.697901  3 H  s          

 Vector   64  Occ=0.000000D+00  E= 1.871768D+00  Symmetry=a'
              MO Center=  2.1D-02,  1.1D+00,  6.0D-15, r^2= 2.1D+00
   Bfn.  Coefficient  Atom+Function         Bfn.  Coefficient  Atom+Function  
  ----- ------------  ---------------      ----- ------------  ---------------
     3      7.659011  1 C  s                 24     -6.865665  2 H  s          
     8      3.764383  1 C  px                17      1.888725  1 C  dxx        
    28      1.871407  2 H  px                 4     -1.056019  1 C  s          
    50     -0.879001  5 Cl s                 22     -0.786100  1 C  dzz        
    23     -0.789288  2 H  s                  9     -0.700955  1 C  py         

 Vector   65  Occ=0.000000D+00  E= 1.930523D+00  Symmetry=a'
              MO Center= -8.5D-02,  1.0D+00, -4.9D-15, r^2= 2.0D+00
   Bfn.  Coefficient  Atom+Function         Bfn.  Coefficient  Atom+Function  
  ----- ------------  ---------------      ----- ------------  ---------------
     3      3.791191  1 C  s                 32     -2.914743  3 H  s          
    40     -2.914743  4 H  s                 22      1.580595  1 C  dzz        
     8     -0.778599  1 C  px                34     -0.691885  3 H  py         
    42     -0.691885  4 H  py                18      0.666736  1 C  dxy        
     9      0.620998  1 C  py                51     -0.514443  5 Cl s          

 Vector   66  Occ=0.000000D+00  E= 2.117220D+00  Symmetry=a'
              MO Center= -3.0D-01,  1.1D+00,  3.6D-15, r^2= 1.7D+00
   Bfn.  Coefficient  Atom+Function         Bfn.  Coefficient  Atom+Function  
  ----- ------------  ---------------      ----- ------------  ---------------
     3     16.970134  1 C  s                 32     -9.908989  3 H  s          
    40     -9.908989  4 H  s                 22      4.144343  1 C  dzz        
     4     -2.759643  1 C  s                 38      1.928963  3 H  pz         
    46     -1.928963  4 H  pz                17      1.638225  1 C  dxx        
    20      1.555910  1 C  dyy                8     -1.535492  1 C  px         

 Vector   67  Occ=0.000000D+00  E= 2.194124D+00  Symmetry=a'
              MO Center=  2.1D-01,  1.1D+00,  7.4D-15, r^2= 1.6D+00
   Bfn.  Coefficient  Atom+Function         Bfn.  Coefficient  Atom+Function  
  ----- ------------  ---------------      ----- ------------  ---------------
     3     19.292664  1 C  s                 32     -7.322906  3 H  s          
    40     -7.322906  4 H  s                 24     -6.372881  2 H  s          
    22      3.660279  1 C  dzz               50     -2.344030  5 Cl s          
     4     -2.257307  1 C  s                  9     -2.009270  1 C  py         
    28      1.842187  2 H  px                20      1.438684  1 C  dyy        

 Vector   68  Occ=0.000000D+00  E= 2.260596D+00  Symmetry=a'
              MO Center=  3.5D-01,  1.1D+00, -2.8D-14, r^2= 1.5D+00
   Bfn.  Coefficient  Atom+Function         Bfn.  Coefficient  Atom+Function  
  ----- ------------  ---------------      ----- ------------  ---------------
     3     21.239112  1 C  s                 32     -7.836319  3 H  s          
    40     -7.836319  4 H  s                 24     -6.709820  2 H  s          
    22      3.280560  1 C  dzz                4     -3.144720  1 C  s          
    50     -2.883754  5 Cl s                  9     -2.662026  1 C  py         
    20      2.083482  1 C  dyy               17      1.950977  1 C  dxx        

 Vector   69  Occ=0.000000D+00  E= 2.348186D+00  Symmetry=a"
              MO Center= -1.6D-01,  1.1D+00, -9.4D-15, r^2= 1.3D+00
   Bfn.  Coefficient  Atom+Function         Bfn.  Coefficient  Atom+Function  
  ----- ------------  ---------------      ----- ------------  ---------------
    15      1.785540  1 C  dyz               34     -0.646418  3 H  py         
    42      0.646418  4 H  py                21     -0.627541  1 C  dyz        
    32      0.571981  3 H  s                 40     -0.571981  4 H  s          
    10     -0.543677  1 C  pz                37      0.481578  3 H  py         
    45     -0.481578  4 H  py                19      0.284923  1 C  dxz        

 Vector   70  Occ=0.000000D+00  E= 2.408034D+00  Symmetry=a"
              MO Center=  6.3D-03,  1.2D+00,  2.1D-14, r^2= 1.8D+00
   Bfn.  Coefficient  Atom+Function         Bfn.  Coefficient  Atom+Function  
  ----- ------------  ---------------      ----- ------------  ---------------
    32     -2.509077  3 H  s                 40      2.509077  4 H  s          
    10      2.397726  1 C  pz                19      1.053031  1 C  dxz        
     7      0.814136  1 C  pz                27     -0.757165  2 H  pz         
    38      0.721018  3 H  pz                46      0.721018  4 H  pz         
    33     -0.635848  3 H  px                41      0.635848  4 H  px         

 Vector   71  Occ=0.000000D+00  E= 2.870964D+00  Symmetry=a"
              MO Center= -1.1D-01,  1.2D+00, -1.4D-14, r^2= 1.3D+00
   Bfn.  Coefficient  Atom+Function         Bfn.  Coefficient  Atom+Function  
  ----- ------------  ---------------      ----- ------------  ---------------
    32      3.008690  3 H  s                 40     -3.008690  4 H  s          
    10     -2.346964  1 C  pz                13      2.154801  1 C  dxz        
    19      1.864936  1 C  dxz               31      0.947557  3 H  s          
    39     -0.947557  4 H  s                 35     -0.918772  3 H  pz         
    43     -0.918772  4 H  pz                 7     -0.896686  1 C  pz         

 Vector   72  Occ=0.000000D+00  E= 2.922234D+00  Symmetry=a'
              MO Center=  4.3D-01,  1.1D+00, -7.5D-15, r^2= 1.4D+00
   Bfn.  Coefficient  Atom+Function         Bfn.  Coefficient  Atom+Function  
  ----- ------------  ---------------      ----- ------------  ---------------
     3     12.185717  1 C  s                 24     -6.496423  2 H  s          
    32     -4.867696  3 H  s                 40     -4.867696  4 H  s          
    22      2.155872  1 C  dzz                8      1.910053  1 C  px         
    28      1.689784  2 H  px                25      1.508217  2 H  px         
    50      1.381878  5 Cl s                 17      1.352981  1 C  dxx        

 Vector   73  Occ=0.000000D+00  E= 3.261201D+00  Symmetry=a'
              MO Center= -1.5D-01,  1.2D+00, -1.6D-14, r^2= 1.3D+00
   Bfn.  Coefficient  Atom+Function         Bfn.  Coefficient  Atom+Function  
  ----- ------------  ---------------      ----- ------------  ---------------
     3      8.946585  1 C  s                 32     -5.678912  3 H  s          
    40     -5.678912  4 H  s                 22      2.241975  1 C  dzz        
    16      1.661997  1 C  dzz                8     -1.553266  1 C  px         
    31     -1.103977  3 H  s                 39     -1.103977  4 H  s          
    11     -0.959809  1 C  dxx               35      0.955072  3 H  pz         

 Vector   74  Occ=0.000000D+00  E= 3.963079D+00  Symmetry=a'
              MO Center= -5.5D-03, -6.2D-01,  6.2D-16, r^2= 1.3D+00
   Bfn.  Coefficient  Atom+Function         Bfn.  Coefficient  Atom+Function  
  ----- ------------  ---------------      ----- ------------  ---------------
    50      2.837222  5 Cl s                 49      2.730225  5 Cl s          
    67     -2.324090  5 Cl dyy               64     -2.295264  5 Cl dxx        
    69     -2.293280  5 Cl dzz               51      2.112348  5 Cl s          
     3     -1.988351  1 C  s                 48     -1.608952  5 Cl s          
    70     -1.183242  5 Cl dxx               75     -1.179269  5 Cl dzz        

 Vector   75  Occ=0.000000D+00  E= 5.269980D+00  Symmetry=a'
              MO Center= -3.5D-02,  1.2D+00, -1.3D-15, r^2= 6.4D-01
   Bfn.  Coefficient  Atom+Function         Bfn.  Coefficient  Atom+Function  
  ----- ------------  ---------------      ----- ------------  ---------------
     2      3.696615  1 C  s                 16     -2.351410  1 C  dzz        
    11     -2.043879  1 C  dxx                4      1.740339  1 C  s          
    14     -1.737367  1 C  dyy                1     -0.946012  1 C  s          
    22     -0.799173  1 C  dzz               51     -0.689162  5 Cl s          
     3     -0.605800  1 C  s                 20     -0.541053  1 C  dyy        


 center of mass
 --------------
 x =  -0.01027371 y =  -0.15367489 z =   0.00000000

 moments of inertia (a.u.)
 ------------------
         126.412842417969          -0.000000000000           0.000000000000
          -0.000000000000          12.587290937778           0.000000000000
           0.000000000000           0.000000000000         124.022502120076

     Multipole analysis of the density
     ---------------------------------

     L   x y z        total         alpha         beta         nuclear
     -   - - -        -----         -----         ----         -------
     0   0 0 0     -0.000000    -13.000000    -13.000000     26.000000

     1   1 0 0      0.063523      0.031761      0.031761      0.000000
     1   0 1 0      0.954415      0.477207      0.477207      0.000000
     1   0 0 1      0.000000      0.000000      0.000000      0.000000

     2   2 0 0    -15.195734    -10.119395    -10.119395      5.043056
     2   1 1 0      0.112646     -0.255624     -0.255624      0.623893
     2   1 0 1     -0.000000     -0.000000     -0.000000      0.000000
     2   0 2 0    -15.101855    -40.856871    -40.856871     66.611888
     2   0 1 1     -0.000000     -0.000000     -0.000000      0.000000
     2   0 0 2    -14.262750    -10.846711    -10.846711      7.430671


 Parallel integral file used      52 records with       0 large values


            General Information
            -------------------
          SCF calculation type: DFT
          Wavefunction type:  closed shell.
          No. of atoms     :     5
          No. of electrons :    26
           Alpha electrons :    13
            Beta electrons :    13
          Charge           :     0
          Spin multiplicity:     1
          Use of symmetry is: on ; symmetry adaption is: on 
          Maximum number of iterations: 200
          AO basis - number of functions:    75
                     number of shells:    31
          Convergence on energy requested:  1.00D-06
          Convergence on density requested:  1.00D-05
          Convergence on gradient requested:  5.00D-04

              XC Information
              --------------
                         B3LYP Method XC Potential
                     Hartree-Fock (Exact) Exchange  0.200          
                        Slater Exchange Functional  0.800 local    
                    Becke 1988 Exchange Functional  0.720 non-local
              Lee-Yang-Parr Correlation Functional  0.810          
                  VWN I RPA Correlation Functional  0.190 local    

             Grid Information
             ----------------
          Grid used for XC integration:  xfine     
          Radial quadrature: Mura-Knowles        
          Angular quadrature: Lebedev. 
          Tag              B.-S. Rad. Rad. Pts. Rad. Cut. Ang. Pts.
          ---              ---------- --------- --------- ---------
          C                   0.70      100          11.0      1454
          H                   0.35      100          10.0      1202
          Cl                  1.00      125          10.0      1454
          Grid pruning is: on 
          Number of quadrature shells:   425
          Spatial weights used:  Erf1

          Convergence Information
          -----------------------
          Convergence aids based upon iterative change in 
          total energy or number of iterations. 
          Levelshifting, if invoked, occurs when the 
          HOMO/LUMO gap drops below (HL_TOL):  1.00D-02
          DIIS, if invoked, will attempt to extrapolate 
          using up to (NFOCK): 10 stored Fock matrices.

                    Damping( 0%)  Levelshifting(0.5)       DIIS
                  --------------- ------------------- ---------------
          dE  on:    start            ASAP                start   
          dE off:    2 iters        200 iters           200 iters 


      Screening Tolerance Information
      -------------------------------
          Density screening/tol_rho:  1.00D-10
          AO Gaussian exp screening on grid/accAOfunc:  14
          CD Gaussian exp screening on grid/accCDfunc:  20
          XC Gaussian exp screening on grid/accXCfunc:  20
          Schwarz screening/accCoul:  1.00D-08



                            NWChem DFT Gradient Module
                            --------------------------


                              CH3Cl acetone opt+freq



  charge          =   0.00
  wavefunction    = closed shell

  Using symmetry


                         DFT ENERGY GRADIENTS

    atom               coordinates                        gradient
                 x          y          z           x          y          z
   1 C      -0.057336   2.198759   0.000000   -0.037262   0.042410   0.000000
   2 H       1.983363   2.227686   0.000000   -0.010179  -0.034402   0.000000
   3 H      -0.737569   2.189116   1.927521    0.022401  -0.041992   0.002689
   4 H      -0.737569   2.189116  -1.927521    0.022401  -0.041992  -0.002689
   5 Cl     -0.009659  -1.164616   0.000000    0.002640   0.075976   0.000000

                 ----------------------------------------
                 |  Time  |  1-e(secs)   |  2-e(secs)   |
                 ----------------------------------------
                 |  CPU   |       0.08   |       2.00   |
                 ----------------------------------------
                 |  WALL  |       0.03   |       1.96   |
                 ----------------------------------------
  no constraints, skipping    0.0000000000000000     

[...]
           5     0.15211    -0.69660     0.00000     0.52392    -0.00000    -0.31046
           6    -0.00000    -0.00000     0.25823    -0.00000     0.71328     0.00000
           7    -0.00750     0.23221     0.05331     0.11174     0.37890    -0.49199
           8     0.15227     0.34276    -0.60459     0.50528     0.26498     0.18294
           9     0.01997     0.06689     0.14744    -0.14514     0.06980    -0.37482
          10    -0.00750     0.23221    -0.05331     0.11174    -0.37890    -0.49199
          11     0.15227     0.34276     0.60459     0.50528    -0.26498     0.18294
          12    -0.01997    -0.06689     0.14744     0.14514     0.06980     0.37482
          13    -0.00231     0.02022     0.00000    -0.00040    -0.00000     0.00333
          14    -0.09193    -0.00056     0.00000    -0.01172    -0.00000    -0.00039
          15     0.00000     0.00000     0.02009     0.00000    -0.00330     0.00000

                   13          14          15
 
 Frequency       3079.10     3196.25     3197.93
 
           1    -0.00174    -0.09228    -0.00000
           2    -0.04034     0.00251     0.00000
           3     0.00000    -0.00000     0.09237
           4     0.55627     0.73851     0.00000
           5     0.14840     0.20269     0.00000
           6     0.00000    -0.00000     0.01171
           7    -0.26779     0.17511     0.31976
           8     0.16515    -0.11612    -0.19930
           9     0.47085    -0.32862    -0.55072
          10    -0.26779     0.17511    -0.31976
          11     0.16515    -0.11612     0.19930
          12    -0.47085     0.32862    -0.55072
          13     0.00000     0.00029     0.00000
          14     0.00005    -0.00001    -0.00000
          15    -0.00000     0.00000    -0.00029



 ----------------------------------------------------------------------------
 Normal Eigenvalue ||         Derivative Dipole Moments (debye/angs)
  Mode   [cm**-1]  ||      [d/dqX]             [d/dqY]           [d/dqZ]
 ------ ---------- || ------------------ ------------------ -----------------
    1      -50.884 ||      -0.000              -0.000            -0.105
    2      -14.066 ||       0.414              -0.009             0.000
    3       -2.069 ||      -0.000               0.000             0.022
    4       -1.283 ||      -0.027               0.001            -0.000
    5        2.232 ||       0.017              -0.000             0.000
    6       19.634 ||       0.000              -0.000            -0.401
    7      685.864 ||       0.024               1.127            -0.000
    8     1009.479 ||       0.315              -0.013            -0.000
    9     1013.031 ||       0.000               0.000             0.317
   10     1336.858 ||       0.030              -0.651            -0.000
   11     1420.746 ||       0.000               0.000             0.577
   12     1425.539 ||      -0.604              -0.021             0.000
   13     3079.098 ||      -0.017              -0.642             0.000
   14     3196.249 ||      -0.138               0.005            -0.000
   15     3197.930 ||       0.000              -0.000            -0.138
 ----------------------------------------------------------------------------



  
  
 ----------------------------------------------------------------------------
 Normal Eigenvalue ||                 Infra Red Intensities
  Mode   [cm**-1]  || [atomic units] [(debye/angs)**2] [(KM/mol)] [arbitrary]
 ------ ---------- || -------------- ----------------- ---------- -----------
    1      -50.884 ||    0.000476           0.011         0.464       0.486
    2      -14.066 ||    0.007419           0.171         7.232       7.580
    3       -2.069 ||    0.000021           0.000         0.020       0.021
    4       -1.283 ||    0.000031           0.001         0.030       0.031
    5        2.232 ||    0.000013           0.000         0.013       0.013
    6       19.634 ||    0.006958           0.161         6.783       7.109
    7      685.864 ||    0.055051           1.270        53.667      56.249
    8     1009.479 ||    0.004303           0.099         4.195       4.397
    9     1013.031 ||    0.004346           0.100         4.237       4.441
   10     1336.858 ||    0.018415           0.425        17.952      18.815
   11     1420.746 ||    0.014407           0.332        14.045      14.720
   12     1425.539 ||    0.015824           0.365        15.426      16.168
   13     3079.098 ||    0.017890           0.413        17.440      18.279
   14     3196.249 ||    0.000826           0.019         0.805       0.844
   15     3197.930 ||    0.000827           0.019         0.806       0.845
 ----------------------------------------------------------------------------





        Vibrational analysis via the FX method 
  --- with translations and rotations projected out ---
  --- via the Eckart algorithm                      ---
 Projected Nuclear Hessian trans-rot subspace norm:2.2565D-33
                         (should be close to zero!) 

          --------------------------------------------------------
          MASS-WEIGHTED PROJECTED HESSIAN (Hartree/Bohr/Bohr/Kamu)
          --------------------------------------------------------


               1            2            3            4            5            6            7            8            9           10
   ----- ----- ----- ----- -----
    1    4.81979D+01
    2   -5.52791D-01  2.55837D+01
    3    4.32115D-17  2.27909D-17  4.82928D+01
    4   -9.17784D+01 -2.14697D+01  4.87350D-16  3.28126D+02
    5   -2.10660D+01 -1.62364D+01  1.35917D-16  7.64848D+01  6.93466D+01
    6   -3.22840D-16  4.83738D-16 -1.39950D+01 -1.52637D-15  3.26619D-16  4.19394D+01
    7   -3.26535D+01  1.20201D+01  3.27966D+01 -9.01514D+00  8.96845D+00  2.27837D+01  1.10633D+02
    8    1.18370D+01 -1.78511D+01 -2.05799D+01 -2.77118D+00  4.49379D+00  7.49278D+00 -4.23128D+01  7.52160D+01
    9    3.27487D+01 -2.09185D+01 -7.16721D+01 -1.83259D+00  1.37145D+00  2.80239D+00 -1.20578D+02  7.44349D+01  2.54230D+02
   10   -3.26535D+01  1.20201D+01 -3.27966D+01 -9.01514D+00  8.96845D+00 -2.27837D+01  8.59439D+00 -5.60225D+00  1.21451D+01  1.10633D+02
   11    1.18370D+01 -1.78511D+01  2.05799D+01 -2.77118D+00  4.49379D+00 -7.49278D+00 -5.60225D+00  4.95476D+00 -7.17509D+00 -4.23128D+01
   12   -3.27487D+01  2.09185D+01 -7.16721D+01  1.83259D+00 -1.37145D+00  2.80239D+00 -1.21451D+01  7.17509D+00 -1.52662D+01  1.20578D+02
   13   -1.56650D+00 -1.12573D-01  7.38516D-17  1.12005D+00 -3.68917D+00 -4.26438D-18  4.18187D-01  1.67071D+00 -4.64828D-01  4.18187D-01
   14   -1.18925D-01 -6.16952D+00 -5.01600D-17  5.33307D-01 -3.78720D+00 -1.08658D-17 -4.29569D-01 -3.91599D+00  6.02798D-01 -4.29569D-01
   15    3.34933D-17  9.44911D-18 -1.57905D+00 -7.49466D-17 -1.94781D-17  1.26861D-01 -5.48243D-01 -3.07093D+00  9.41824D-01  5.48243D-01


              11           12           13           14           15
   ----- ----- ----- ----- -----
   11    7.52160D+01
   12   -7.44349D+01  2.54230D+02
   13    1.67071D+00  4.64828D-01  5.85524D-01
   14   -3.91599D+00 -6.02798D-01  1.24982D-01  5.58666D+00
   15    3.07093D+00  9.41824D-01 -3.79316D-19  1.34429D-17  5.83689D-01

 center of mass
 --------------
 x =   0.03657385 y =  -0.52493507 z =   0.00000000

 moments of inertia (a.u.)
 ------------------
         139.662812410187          -3.231086660367           0.000000000000
          -3.231086660367          11.812867174451           0.000000000000
           0.000000000000           0.000000000000         139.741987036002

 Rotational Constants
 --------------------
 A=   5.131603 cm-1  (  7.383067 K)
 B=   0.430795 cm-1  (  0.619804 K)
 C=   0.430788 cm-1  (  0.619794 K)


 Temperature                      =   298.15K
 frequency scaling parameter      =   1.0000

 Zero-Point correction to Energy  =   23.381 kcal/mol  (  0.037259 au)
 Thermal correction to Energy     =   25.291 kcal/mol  (  0.040303 au)
 Thermal correction to Enthalpy   =   25.883 kcal/mol  (  0.041247 au)

 Total Entropy                    =   58.250 cal/mol-K
   - Translational                =   37.635 cal/mol-K (mol. weight =  49.9923)
   - Rotational                   =   20.057 cal/mol-K (symmetry #  =        1)
   - Vibrational                  =    0.559 cal/mol-K

 Cv (constant volume heat capacity) =    7.874 cal/mol-K
   - Translational                  =    2.979 cal/mol-K
   - Rotational                     =    2.979 cal/mol-K
   - Vibrational                    =    1.915 cal/mol-K



          -------------------------------------------------
          NORMAL MODE EIGENVECTORS IN CARTESIAN COORDINATES
          -------------------------------------------------
             (Projected Frequencies expressed in cm-1)

                    1           2           3           4           5           6
 
 P.Frequency       -0.00       -0.00       -0.00       -0.00       -0.00        0.00
 
           1     0.00324     0.24447     0.00134     0.00719     0.00102     0.00496
           2    -0.00001    -0.00511     0.14127     0.00345     0.00001     0.00580
           3     0.20111     0.00019     0.00573    -0.00051    -0.01033    -0.13890
           4     0.00388     0.28551     0.00169    -0.02013     0.00127     0.00605
           5    -0.00221    -0.14482     0.14008     0.09644    -0.00084     0.00209
           6     0.56491    -0.01391    -0.01320     0.00485     0.02998     0.30706
           7    -0.28187     0.30274     0.01898    -0.02817    -0.01042    -0.40083
           8    -0.09050     0.06301     0.13854    -0.04179    -0.07765     0.08811
           9     0.07397     0.00711     0.01680    -0.00321     0.01301    -0.40096
          10     0.28980     0.27847    -0.01552    -0.01887     0.01302     0.41320
          11     0.09264     0.06318     0.14516    -0.04209     0.07851    -0.07290
          12     0.07397     0.00711     0.01680    -0.00321     0.01301    -0.40096
          13    -0.00057     0.00313    -0.00071     0.16781    -0.00045    -0.00144
          14     0.00009     0.00098     0.14132    -0.00060     0.00005     0.00596
          15     0.00261     0.00063    -0.00005    -0.00044    -0.16782     0.00223

                    7           8           9          10          11          12
 
 P.Frequency      685.86     1009.60     1011.08     1336.80     1420.72     1425.42
 
           1     0.00583    -0.10537     0.00000    -0.00347     0.00000     0.06174
           2     0.22953     0.00266     0.00000    -0.09470     0.00000    -0.00353
           3    -0.00000     0.00000     0.10523     0.00000    -0.06206     0.00000
           4     0.02669     0.09098     0.00000    -0.16836     0.00000     0.13399
           5     0.15235    -0.69730     0.00000     0.52383    -0.00000    -0.30905
           6     0.00000    -0.00000    -0.25975    -0.00000     0.71409    -0.00000
           7    -0.00752     0.23133    -0.05053     0.11176     0.37860    -0.49256
           8     0.15217     0.34313     0.60463     0.50531     0.26423     0.18223
           9     0.01994     0.06619    -0.14573    -0.14514     0.06984    -0.37496
          10    -0.00752     0.23133     0.05053     0.11176    -0.37860    -0.49256
          11     0.15217     0.34313    -0.60463     0.50531    -0.26423     0.18223
          12    -0.01994    -0.06619    -0.14573     0.14514     0.06984     0.37496
          13    -0.00234     0.02020    -0.00000    -0.00040     0.00000     0.00334
          14    -0.09193    -0.00059    -0.00000    -0.01173    -0.00000    -0.00039
          15     0.00000    -0.00000    -0.02022    -0.00000    -0.00331     0.00000

                   13          14          15
 
 P.Frequency     3079.11     3196.35     3197.89
 
           1    -0.00172    -0.09228     0.00000
           2    -0.04034     0.00251     0.00000
           3    -0.00000     0.00000     0.09237
           4     0.55613     0.73870    -0.00000
           5     0.14819     0.20253    -0.00000
           6    -0.00000     0.00000     0.01170
           7    -0.26777     0.17514     0.31978
           8     0.16526    -0.11598    -0.19936
           9     0.47093    -0.32848    -0.55068
          10    -0.26777     0.17514    -0.31978
          11     0.16526    -0.11598     0.19936
          12    -0.47093     0.32848    -0.55068
          13    -0.00000     0.00028    -0.00000
          14     0.00005    -0.00001     0.00000
          15     0.00000    -0.00000    -0.00029



 ----------------------------------------------------------------------------
 Normal Eigenvalue ||    Projected Derivative Dipole Moments (debye/angs)
  Mode   [cm**-1]  ||      [d/dqX]             [d/dqY]           [d/dqZ]
 ------ ---------- || ------------------ ------------------ -----------------
    1       -0.000 ||       0.005              -0.000             0.284
    2       -0.000 ||       0.345              -0.008            -0.001
    3       -0.000 ||       0.003              -0.000             0.008
    4       -0.000 ||      -0.230               0.005            -0.000
    5       -0.000 ||      -0.002               0.000            -0.225
    6        0.000 ||       0.009              -0.000            -0.201
    7      685.864 ||       0.024               1.127             0.000
    8     1009.599 ||       0.314              -0.012            -0.000
    9     1011.078 ||       0.000               0.000            -0.315
   10     1336.800 ||       0.030              -0.651             0.000
   11     1420.723 ||      -0.000               0.000             0.577
   12     1425.422 ||      -0.605              -0.021            -0.000
   13     3079.106 ||      -0.016              -0.642            -0.000
   14     3196.352 ||      -0.138               0.004             0.000
   15     3197.890 ||      -0.000               0.000            -0.138
 ----------------------------------------------------------------------------



  
  
 ----------------------------------------------------------------------------
 Normal Eigenvalue ||           Projected Infra Red Intensities
  Mode   [cm**-1]  || [atomic units] [(debye/angs)**2] [(KM/mol)] [arbitrary]
 ------ ---------- || -------------- ----------------- ---------- -----------
    1       -0.000 ||    0.003507           0.081         3.419       3.583
    2       -0.000 ||    0.005158           0.119         5.028       5.270
    3       -0.000 ||    0.000003           0.000         0.003       0.003
    4       -0.000 ||    0.002285           0.053         2.227       2.335
    5       -0.000 ||    0.002200           0.051         2.145       2.248
    6        0.000 ||    0.001758           0.041         1.714       1.796
    7      685.864 ||    0.055050           1.270        53.665      56.247
    8     1009.599 ||    0.004275           0.099         4.168       4.368
    9     1011.078 ||    0.004312           0.099         4.204       4.406
   10     1336.800 ||    0.018416           0.425        17.953      18.817
   11     1420.723 ||    0.014432           0.333        14.069      14.746
   12     1425.422 ||    0.015868           0.366        15.469      16.213
   13     3079.106 ||    0.017890           0.413        17.440      18.279
   14     3196.352 ||    0.000824           0.019         0.803       0.842
   15     3197.890 ||    0.000827           0.019         0.807       0.845
 ----------------------------------------------------------------------------



 vib:animation  F

 Task  times  cpu:     8292.6s     wall:     3980.4s
 Summary of allocated global arrays
-----------------------------------
  No active global arrays


MA_summarize_allocated_blocks: starting scan ...
MA_summarize_allocated_blocks: scan completed: 0 heap blocks, 0 stack blocks
MA usage statistics:

	allocation statistics:
					      heap	     stack
					      ----	     -----
	current number of blocks	         0	         0
	maximum number of blocks	        27	        57
	current total bytes		         0	         0
	maximum total bytes		  95222944	  32936616
	maximum total K-bytes		     95223	     32937
	maximum total M-bytes		        96	        33


                                NWChem Input Module
                                -------------------




                                     CITATION
                                     --------
                Please cite the following reference when publishing
                           results obtained with NWChem:

          E. Apra, E. J. Bylaska, W. A. de Jong, N. Govind, K. Kowalski,
       T. P. Straatsma, M. Valiev, H. J. J. van Dam, Y. Alexeev, J. Anchell,
       V. Anisimov, F. W. Aquino, R. Atta-Fynn, J. Autschbach, N. P. Bauman,
     J. C. Becca, D. E. Bernholdt, K. Bhaskaran-Nair, S. Bogatko, P. Borowski,
         J. Boschen, J. Brabec, A. Bruner, E. Cauet, Y. Chen, G. N. Chuev,
      C. J. Cramer, J. Daily, M. J. O. Deegan, T. H. Dunning Jr., M. Dupuis,
   K. G. Dyall, G. I. Fann, S. A. Fischer, A. Fonari, H. Fruchtl, L. Gagliardi,
      J. Garza, N. Gawande, S. Ghosh, K. Glaesemann, A. W. Gotz, J. Hammond,
       V. Helms, E. D. Hermes, K. Hirao, S. Hirata, M. Jacquelin, L. Jensen,
   B. G. Johnson, H. Jonsson, R. A. Kendall, M. Klemm, R. Kobayashi, V. Konkov,
      S. Krishnamoorthy, M. Krishnan, Z. Lin, R. D. Lins, R. J. Littlefield,
      A. J. Logsdail, K. Lopata, W. Ma, A. V. Marenich, J. Martin del Campo,
   D. Mejia-Rodriguez, J. E. Moore, J. M. Mullin, T. Nakajima, D. R. Nascimento,
    J. A. Nichols, P. J. Nichols, J. Nieplocha, A. Otero-de-la-Roza, B. Palmer,
    A. Panyala, T. Pirojsirikul, B. Peng, R. Peverati, J. Pittner, L. Pollack,
   R. M. Richard, P. Sadayappan, G. C. Schatz, W. A. Shelton, D. W. Silverstein,
   D. M. A. Smith, T. A. Soares, D. Song, M. Swart, H. L. Taylor, G. S. Thomas,
            V. Tipparaju, D. G. Truhlar, K. Tsemekhman, T. Van Voorhis,
      A. Vazquez-Mayagoitia, P. Verma, O. Villa, A. Vishnu, K. D. Vogiatzis,
        D. Wang, J. H. Weare, M. J. Williamson, T. L. Windus, K. Wolinski,
        A. T. Wong, Q. Wu, C. Yang, Q. Yu, M. Zacharias, Z. Zhang, Y. Zhao,
                                and R. J. Harrison
                        "NWChem: Past, present, and future
                         J. Chem. Phys. 152, 184102 (2020)
                               doi:10.1063/5.0004997

                                      AUTHORS
                                      -------
  E. Apra, E. J. Bylaska, N. Govind, K. Kowalski, M. Valiev, D. Mejia-Rodriguez,
       A. Kunitsa, N. P. Bauman, A. Panyala, W. A. de Jong, T. P. Straatsma,
   H. J. J. van Dam, D. Wang, T. L. Windus, J. Hammond, J. Autschbach, A. Woods,
    K. Bhaskaran-Nair, J. Brabec, K. Lopata, S. A. Fischer, S. Krishnamoorthy,
     M. Jacquelin, W. Ma, M. Klemm, O. Villa, Y. Chen, V. Anisimov, F. Aquino,
     S. Hirata, M. T. Hackler, E. Hermes, L. Jensen, J. E. Moore, J. C. Becca,
      V. Konjkov, T. Risthaus, M. Malagoli, A. Marenich, A. Otero-de-la-Roza,
        J. Mullin, P. Nichols, R. Peverati, J. Pittner, Y. Zhao, P.-D. Fan,
        A. Fonari, M. J. Williamson, R. J. Harrison, J. R. Rehr, M. Dupuis,
     D. Silverstein, D. M. A. Smith, J. Nieplocha, V. Tipparaju, M. Krishnan,
     B. E. Van Kuiken, A. Vazquez-Mayagoitia, M. Swart, Q. Wu, T. Van Voorhis,
     A. A. Auer, M. Nooijen, L. D. Crosby, E. Brown, G. Cisneros, G. I. Fann,
   H. Fruchtl, J. Garza, K. Hirao, R. A. Kendall, J. A. Nichols, K. Tsemekhman,
    K. Wolinski, J. Anchell, D. E. Bernholdt, P. Borowski, T. Clark, D. Clerc,
   H. Dachsel, M. J. O. Deegan, K. Dyall, D. Elwood, E. Glendening, M. Gutowski,
   A. C. Hess, J. Jaffe, B. G. Johnson, J. Ju, R. Kobayashi, R. Kutteh, Z. Lin,
   R. Littlefield, X. Long, B. Meng, T. Nakajima, S. Niu, L. Pollack, M. Rosing,
   K. Glaesemann, G. Sandrone, M. Stave, H. Taylor, G. Thomas, J. H. van Lenthe,
                               A. T. Wong, Z. Zhang.

 Total times  cpu:     8962.9s     wall:     4287.5s
