 argument  1 = /home/sebastian/СH3Cl+F=CH3F+Cl/inputs/acetone_env/CH3F_opt_freq.nw



============================== echo of input deck ==============================
start CH3F_opt_freq
title "CH3F acetone opt+freq"
memory total 2000 mb
echo

charge 0
geometry units angstrom
 C   0.000   0.000   0.000
 H   0.000   1.080   0.000
 H   1.020  -0.360   0.000
 H  -1.020  -0.360   0.000
 F  0.000   0.000   1.3
end

basis
    * library def2-svpd
end

dft
  xc b3lyp
  grid xfine
  iterations 200
end

cosmo
 dielec 25.2
 lineq  0
end

task dft optimize
task dft freq


#nwchem ~/СH3Cl+F=CH3F+Cl/inputs/acetone_env/CH3F_opt_freq.nw > ~/СH3Cl+F=CH3F+Cl/outputs/acetone_env/CH3F_opt_freq.out
#grep -i "Total DFT energy" "$HOME/СH3Cl+F=CH3F+Cl/outputs/acetone_env/CH3F_opt_freq.out"
================================================================================


                                         
                                         


             Northwest Computational Chemistry Package (NWChem) 7.2.2
             --------------------------------------------------------


                    Environmental Molecular Sciences Laboratory
                       Pacific Northwest National Laboratory
                                Richland, WA 99352

                              Copyright (c) 1994-2022
                       Pacific Northwest National Laboratory
                            Battelle Memorial Institute

             NWChem is an open-source computational chemistry package
                        distributed under the terms of the
                      Educational Community License (ECL) 2.0
             A copy of the license is included with this distribution
                              in the LICENSE.TXT file

                                  ACKNOWLEDGMENT
                                  --------------

            This software and its documentation were developed at the
            EMSL at Pacific Northwest National Laboratory, a multiprogram
            national laboratory, operated for the U.S. Department of Energy
            by Battelle under Contract Number DE-AC05-76RL01830. Support
            for this work was provided by the Department of Energy Office
            of Biological and Environmental Research, Office of Basic
            Energy Sciences, and the Office of Advanced Scientific Computing.


           Job information
           ---------------

    hostname        = DESKTOP-B8GSJV0
    program         = nwchem
    date            = Fri Sep 12 14:52:35 2025

    compiled        = Mon_Apr_01_11:12:32_2024
    source          = /build/nwchem-qbYJLs/nwchem-7.2.2/build-openmpi
    nwchem branch   = 7.2.2
    nwchem revision = N/A
    ga revision     = N/A
    use scalapack   = T
    input           = /home/sebastian/СH3Cl+F=CH3F+Cl/inputs/acetone_env/CH3F_opt_freq.nw
    prefix          = CH3F_opt_freq.
    data base       = ./CH3F_opt_freq.db
    status          = startup
    nproc           =        1
    time left       =     -1s



           Memory information
           ------------------

    heap     =   65536000 doubles =    500.0 Mbytes
    stack    =   65535997 doubles =    500.0 Mbytes
    global   =  131072000 doubles =   1000.0 Mbytes (distinct from heap & stack)
    total    =  262143997 doubles =   2000.0 Mbytes
    verify   = yes
    hardfail = no 


           Directory information
           ---------------------

  0 permanent = .
  0 scratch   = .




                                NWChem Input Module
                                -------------------


                               CH3F acetone opt+freq
                               ---------------------

 Scaling coordinates for geometry "geometry" by  1.889725989
 (inverse scale =  0.529177249)

 CS  symmetry detected

          ------
          auto-z
          ------
  Looking for out-of-plane bends
  no constraints, skipping    0.0000000000000000     
  no constraints, skipping    0.0000000000000000     


                             Geometry "geometry" -> ""
                             -------------------------

 Output coordinates in angstroms (scale by  1.889725989 to convert to a.u.)

  No.       Tag          Charge          X              Y              Z
 ---- ---------------- ---------- -------------- -------------- --------------
    1 C                    6.0000    -0.03341969     0.64944832     0.00000000
    2 H                    1.0000     1.04634997     0.67175274     0.00000000
    3 H                    1.0000    -0.39334291     0.64201352     1.02000000
    4 H                    1.0000    -0.39334291     0.64201352    -1.02000000
    5 F                    9.0000    -0.00657178    -0.65027441     0.00000000

      Atomic Mass 
      ----------- 

      C                 12.000000
      H                  1.007825
      F                 18.998400


 Effective nuclear repulsion energy (a.u.)      40.1012486142

            Nuclear Dipole moment (a.u.) 
            ----------------------------
        X                 Y               Z
 ---------------- ---------------- ----------------
    -0.0000000000     0.0000000000     0.0000000000

      Symmetry information
      --------------------

 Group name             Cs        
 Group number              2
 Group order               2
 No. of unique centers     4

      Symmetry unique atoms

     1    2    3    5



                                Z-matrix (autoz)
                                -------- 

 Units are Angstrom for bonds and degrees for angles

      Type          Name      I     J     K     L     M      Value
      ----------- --------  ----- ----- ----- ----- ----- ----------
    1 Stretch                  1     2                       1.08000
    2 Stretch                  1     3                       1.08167
    3 Stretch                  1     4                       1.08167
    4 Stretch                  1     5                       1.30000
    5 Bend                     2     1     3               109.44003
    6 Bend                     2     1     4               109.44003
    7 Bend                     2     1     5                90.00000
    8 Bend                     3     1     4               141.11993
    9 Bend                     3     1     5                90.00000
   10 Bend                     4     1     5                90.00000


            XYZ format geometry
            -------------------
     5
 geometry
 C                    -0.03341969     0.64944832     0.00000000
 H                     1.04634997     0.67175274     0.00000000
 H                    -0.39334291     0.64201352     1.02000000
 H                    -0.39334291     0.64201352    -1.02000000
 F                    -0.00657178    -0.65027441     0.00000000

 ==============================================================================
                                internuclear distances
 ------------------------------------------------------------------------------
       center one      |      center two      | atomic units |  angstroms
 ------------------------------------------------------------------------------
    2 H                |   1 C                |     2.04090  |     1.08000
    3 H                |   1 C                |     2.04405  |     1.08167
    4 H                |   1 C                |     2.04405  |     1.08167
    5 F                |   1 C                |     2.45664  |     1.30000
 ------------------------------------------------------------------------------
                         number of included internuclear distances:          4
 ==============================================================================



 ==============================================================================
                                 internuclear angles
 ------------------------------------------------------------------------------
        center 1       |       center 2       |       center 3       |  degrees
 ------------------------------------------------------------------------------
    2 H                |   1 C                |   3 H                |   109.44
    2 H                |   1 C                |   4 H                |   109.44
    2 H                |   1 C                |   5 F                |    90.00
    3 H                |   1 C                |   4 H                |   141.12
    3 H                |   1 C                |   5 F                |    90.00
    4 H                |   1 C                |   5 F                |    90.00
 ------------------------------------------------------------------------------
                            number of included internuclear angles:          6
 ==============================================================================





 Summary of "ao basis" -> "" (cartesian)
 ------------------------------------------------------------------------------
       Tag                 Description            Shells   Functions and Types
 ---------------- ------------------------------  ------  ---------------------
 *                         def2-svpd                  on all atoms 




                           NWChem Geometry Optimization
                           ----------------------------




                               CH3F acetone opt+freq


  no constraints, skipping    0.0000000000000000     
 maximum gradient threshold         (gmax) =   0.000450
 rms gradient threshold             (grms) =   0.000300
 maximum cartesian step threshold   (xmax) =   0.001800
 rms cartesian step threshold       (xrms) =   0.001200
 fixed trust radius                (trust) =   0.300000
 maximum step size to saddle      (sadstp) =   0.100000
 energy precision                  (eprec) =   5.0D-06
 maximum number of steps          (nptopt) =   40
 initial hessian option           (inhess) =    0
 line search option               (linopt) =    1
 hessian update option            (modupd) =    1
 saddle point option              (modsad) =    0
 initial eigen-mode to follow     (moddir) =    0
 initial variable to follow       (vardir) =    0
 follow first negative mode     (firstneg) =    T
 apply conjugacy                    (opcg) =    F
 source of zmatrix                         =   autoz   


          -------------------
          Energy Minimization
          -------------------


 Names of Z-matrix variables 
    1              2              3              4              5         
    6              7              8              9             10         

 Variables with the same non-blank name are constrained to be equal


 Using old Hessian from previous optimization

          --------
          Step   0
          --------


                         Geometry "geometry" -> "geometry"
                         ---------------------------------

 Output coordinates in angstroms (scale by  1.889725989 to convert to a.u.)

  No.       Tag          Charge          X              Y              Z
 ---- ---------------- ---------- -------------- -------------- --------------
    1 C                    6.0000    -0.03341969     0.64944832     0.00000000
    2 H                    1.0000     1.04634997     0.67175274     0.00000000
    3 H                    1.0000    -0.39334291     0.64201352     1.02000000
    4 H                    1.0000    -0.39334291     0.64201352    -1.02000000
    5 F                    9.0000    -0.00657178    -0.65027441     0.00000000

      Atomic Mass 
      ----------- 

      C                 12.000000
      H                  1.007825
      F                 18.998400


 Effective nuclear repulsion energy (a.u.)      40.1012486142

            Nuclear Dipole moment (a.u.) 
            ----------------------------
        X                 Y               Z
 ---------------- ---------------- ----------------
    -0.0000000000     0.0000000000     0.0000000000

      Symmetry information
      --------------------

 Group name             Cs        
 Group number              2
 Group order               2
 No. of unique centers     4

      Symmetry unique atoms

     1    2    3    5


                                 NWChem DFT Module
                                 -----------------


                               CH3F acetone opt+freq


                      Basis "ao basis" -> "ao basis" (cartesian)
                      -----
  C (Carbon)
  ----------
            Exponent  Coefficients 
       -------------- ---------------------------------------------------------
  1 S  1.23840169E+03  0.005457
  1 S  1.86290050E+02  0.040638
  1 S  4.22511763E+01  0.180256
  1 S  1.16765579E+01  0.463151
  1 S  3.59305065E+00  0.440872

  2 S  4.02451474E-01  1.000000

  3 S  1.30901827E-01  1.000000

  4 S  6.70535403E-02  1.000000

  5 P  9.46809706E+00  0.038388
  5 P  2.01035451E+00  0.211170
  5 P  5.47710047E-01  0.513282

  6 P  1.52686138E-01  1.000000

  7 D  8.00000000E-01  1.000000

  8 D  1.17131851E-01  1.000000

  H (Hydrogen)
  ------------
            Exponent  Coefficients 
       -------------- ---------------------------------------------------------
  1 S  1.30107010E+01  0.019682
  1 S  1.96225720E+00  0.137965
  1 S  4.44537960E-01  0.478319

  2 S  1.21949620E-01  1.000000

  3 P  8.00000000E-01  1.000000

  4 P  1.17040991E-01  1.000000

  F (Fluorine)
  ------------
            Exponent  Coefficients 
       -------------- ---------------------------------------------------------
  1 S  2.89483260E+03 -0.005341
  1 S  4.35419391E+02 -0.039904
  1 S  9.88433289E+01 -0.179128
  1 S  2.74851980E+01 -0.467581
  1 S  8.54054982E+00 -0.446531

  2 S  1.06545780E+00  1.000000

  3 S  3.32473467E-01  1.000000

  4 S  9.80977523E-02  1.000000

  5 P  2.26966339E+01 -0.045213
  5 P  4.98723393E+00 -0.237543
  5 P  1.34916140E+00 -0.512874

  6 P  3.48298820E-01  1.000000

  7 P  8.33721483E-02  1.000000

  8 D  1.40000000E+00  1.000000

  9 D  2.23013619E-01  1.000000



 Summary of "ao basis" -> "ao basis" (cartesian)
 ------------------------------------------------------------------------------
       Tag                 Description            Shells   Functions and Types
 ---------------- ------------------------------  ------  ---------------------
 C                         def2-svpd                 8       22   4s2p2d
 H                         def2-svpd                 4        8   2s2p
 F                         def2-svpd                 9       25   4s3p2d




 Summary of "ao basis" -> "ao basis" (cartesian)
 ------------------------------------------------------------------------------
       Tag                 Description            Shells   Functions and Types
 ---------------- ------------------------------  ------  ---------------------
 C                         def2-svpd                 8       22   4s2p2d
 H                         def2-svpd                 4        8   2s2p
 F                         def2-svpd                 9       25   4s3p2d


      Symmetry analysis of basis
      --------------------------

        a'         48
        a"         23

 in cosmo_initialize ...

 solvent parameters
 solvname_short: unkn    
 solvname_long:  unknown                            
 dielec:       25.2000

          ---------------
          -cosmo- solvent
          ---------------
 Cosmo: York-Karplus, doi: 10.1021/jp992097l
 dielectric constant -eps-     =  25.20
 screen = (eps-1)/(eps    )    =   0.96032
 surface charge correction     = lagrangian

 solvent accessible surface
 --------------------------

 ---------- ATOMIC COORDINATES (A.U.) ------------ VDWR(ANG.) --
     1   -0.06315405    1.22727937    0.00000000     2.000
     2    1.97731473    1.26942860    0.00000000     1.300
     3   -0.74331031    1.21322963    1.92752051     1.300
     4   -0.74331031    1.21322963   -1.92752051     1.300
     5   -0.01241887   -1.22884046    0.00000000     1.720
 number of segments per atom =         32
 number of   points per atom =         32
 atom (   nspa,  nppa )
 ----------------------
    1 (     20,     0 )       0
    2 (     14,     0 )       0
    3 (     13,     0 )       0
    4 (     13,     0 )       0
    5 (     20,     0 )       0
 number of -cosmo- surface points =       80
 molecular surface =     60.487 angstrom**2
 molecular volume  =     34.524 angstrom**3
 G(cav/disp)       =      1.162 kcal/mol
 -lineq- algorithm             =   0
 -bem- low  level              =   2
 -bem- from -octahedral-
 gaussian surface charge width =   4.50000
 degree of switching           =   1.00000
 switching function tolerance  =   0.00010
 atomic radii = 
 --------------
    1  6.000  2.000
    2  1.000  1.300
    3  1.000  1.300
    4  1.000  1.300
    5  9.000  1.720
 ...... end of -cosmo- initialization ......


  Caching 1-el integrals 

            General Information
            -------------------
          SCF calculation type: DFT
          Wavefunction type:  closed shell.
          No. of atoms     :     5
          No. of electrons :    18
           Alpha electrons :     9
            Beta electrons :     9
          Charge           :     0
          Spin multiplicity:     1
          Use of symmetry is: on ; symmetry adaption is: on 
          Maximum number of iterations: 200
          AO basis - number of functions:    71
                     number of shells:    29
          Convergence on energy requested:  1.00D-06
          Convergence on density requested:  1.00D-05
          Convergence on gradient requested:  5.00D-04

              XC Information
              --------------
                         B3LYP Method XC Potential
                     Hartree-Fock (Exact) Exchange  0.200          
                        Slater Exchange Functional  0.800 local    
                    Becke 1988 Exchange Functional  0.720 non-local
              Lee-Yang-Parr Correlation Functional  0.810          
                  VWN I RPA Correlation Functional  0.190 local    

             Grid Information
             ----------------
          Grid used for XC integration:  xfine     
          Radial quadrature: Mura-Knowles        
          Angular quadrature: Lebedev. 
          Tag              B.-S. Rad. Rad. Pts. Rad. Cut. Ang. Pts.
          ---              ---------- --------- --------- ---------
          C                   0.70      100           8.0      1454
          H                   0.35      100           8.0      1202
          F                   0.50      100           8.0      1454
          Grid pruning is: on 
          Number of quadrature shells:   400
          Spatial weights used:  Erf1

          Convergence Information
          -----------------------
          Convergence aids based upon iterative change in 
          total energy or number of iterations. 
          Levelshifting, if invoked, occurs when the 
          HOMO/LUMO gap drops below (HL_TOL):  1.00D-02
          DIIS, if invoked, will attempt to extrapolate 
          using up to (NFOCK): 10 stored Fock matrices.

                    Damping( 0%)  Levelshifting(0.5)       DIIS
                  --------------- ------------------- ---------------
          dE  on:    start            ASAP                start   
          dE off:    2 iters        200 iters           200 iters 


      Screening Tolerance Information
      -------------------------------
          Density screening/tol_rho:  1.00D-10
          AO Gaussian exp screening on grid/accAOfunc:  14
          CD Gaussian exp screening on grid/accCDfunc:  20
          XC Gaussian exp screening on grid/accXCfunc:  20
          Schwarz screening/accCoul:  1.00D-08


      Superposition of Atomic Density Guess
      -------------------------------------

 Sum of atomic energies:        -138.42012618

      Non-variational initial energy
      ------------------------------

 Total energy =    -139.395211
 1-e energy   =    -269.765204
 2-e energy   =      90.268744
 HOMO         =      -0.391402
 LUMO         =       0.049333


      Symmetry analysis of molecular orbitals - initial
      -------------------------------------------------

  Numbering of irreducible representations: 

     1 a'          2 a"      

  Orbital symmetries:

     1 a'          2 a'          3 a'          4 a'          5 a"      
     6 a'          7 a'          8 a"          9 a'         10 a'      
    11 a'         12 a"         13 a'         14 a'         15 a'      
    16 a"         17 a"         18 a'         19 a'      

  WARNING: movecs_in_org=atomic not equal to movecs_in=./CH3F_opt_freq.movecs
   Time after variat. SCF:      0.2
   Time prior to 1st pass:      0.2

 Integral file          = ./CH3F_opt_freq.aoints.0
 Record size in doubles =    65536    No. of integs per rec  =    43688
 Max. records in memory =       69    Max. records in file   =  1850211
 No. of bits per label  =        8    No. of bits per value  =       64


 #quartets = 6.406D+04 #integrals = 1.826D+06 #direct =  0.0% #cached =100.0%


 Grid_pts file          = ./CH3F_opt_freq.gridpts.0
 Record size in doubles =  12289        No. of grid_pts per rec  =   3070
 Max. records in memory =    210        Max. recs in file   =   9866996

 Grid integrated density:      18.000000916801
 Requested integration accuracy:   0.10E-07

           Memory utilization after 1st SCF pass: 
           Heap Space remaining (MW):       58.43            58430464
          Stack Space remaining (MW):       65.54            65535460

   convergence    iter        energy       DeltaE   RMS-Dens  Diis-err    time
 ---------------- ----- ----------------- --------- --------- ---------  ------
     COSMO gas phase
 d= 0,ls=0.0,diis     1   -139.5303869769 -1.80D+02  3.53D-02  4.29D-01     1.5
 Grid integrated density:      18.000000905141
 Requested integration accuracy:   0.10E-07
 d= 0,ls=0.0,diis     2   -139.5195569057  1.08D-02  7.77D-03  6.31D-01     2.7
 d= 0,ls=0.0,diis     3   -139.5694514770 -4.99D-02  2.73D-03  1.73D-02     3.9
 d= 0,ls=0.0,diis     4   -139.5706017173 -1.15D-03  7.39D-04  1.30D-03     4.9
 d= 0,ls=0.0,diis     5   -139.5707269319 -1.25D-04  1.20D-04  4.60D-05     6.1
  Resetting Diis
 d= 0,ls=0.0,diis     6   -139.5707322590 -5.33D-06  2.14D-05  3.08D-07     6.9
 d= 0,ls=0.0,diis     7   -139.5707322937 -3.47D-08  4.23D-06  1.43D-08     7.8

           Memory utilization after 1st SCF pass: 
           Heap Space remaining (MW):       58.43            58430128
          Stack Space remaining (MW):       65.54            65535460

   convergence    iter        energy       DeltaE   RMS-Dens  Diis-err    time
 ---------------- ----- ----------------- --------- --------- ---------  ------
     COSMO solvation phase
 d= 0,ls=0.0,diis     1   -139.5740533148 -3.32D-03  2.83D-03  1.22D-03     9.0
 d= 0,ls=0.0,diis     2   -139.5743593482 -3.06D-04  4.52D-04  2.91D-04    10.1
 d= 0,ls=0.0,diis     3   -139.5743695745 -1.02D-05  2.09D-04  2.26D-04    11.2
 d= 0,ls=0.0,diis     4   -139.5743857054 -1.61D-05  2.20D-05  1.19D-06    12.1
 d= 0,ls=0.0,diis     5   -139.5743858212 -1.16D-07  1.04D-05  1.65D-07    13.0
 d= 0,ls=0.0,diis     6   -139.5743858368 -1.56D-08  2.86D-06  1.90D-08    13.9


         Total DFT energy =     -139.574385836789
      One electron energy =     -271.475731009194
           Coulomb energy =      108.785967540294
    Exchange-Corr. energy =      -17.030784900473
 Nuclear repulsion energy =       40.101248614193

             COSMO energy =        0.044913918390

 Numeric. integr. density =       17.999999998223

     Total iterative time =     13.7s


                                   COSMO solvation results
                                   -----------------------

                 gas phase energy =      -139.570732293733
                 sol phase energy =      -139.574385836789
 (electrostatic) solvation energy =         0.003653543056 (    2.29 kcal/mol)

                  Occupations of the irreducible representations
                  ----------------------------------------------

                     irrep           alpha         beta
                     --------     --------     --------
                     a'                7.0          7.0
                     a"                2.0          2.0


                       DFT Final Molecular Orbital Analysis
                       ------------------------------------

 Vector    1  Occ=2.000000D+00  E=-2.468651D+01  Symmetry=a'
              MO Center= -6.6D-03, -6.5D-01, -2.8D-19, r^2= 1.2D-02
   Bfn.  Coefficient  Atom+Function         Bfn.  Coefficient  Atom+Function  
  ----- ------------  ---------------      ----- ------------  ---------------
    47      0.985446  5 F  s                 48     -0.047705  5 F  s          

 Vector    2  Occ=2.000000D+00  E=-1.025153D+01  Symmetry=a'
              MO Center= -3.3D-02,  6.5D-01,  2.9D-18, r^2= 2.8D-02
   Bfn.  Coefficient  Atom+Function         Bfn.  Coefficient  Atom+Function  
  ----- ------------  ---------------      ----- ------------  ---------------
     1      0.987306  1 C  s                  2      0.064093  1 C  s          
     4     -0.034588  1 C  s                 50     -0.028547  5 F  s          

 Vector    3  Occ=2.000000D+00  E=-1.222165D+00  Symmetry=a'
              MO Center= -7.8D-03, -4.3D-01, -5.2D-16, r^2= 4.3D-01
   Bfn.  Coefficient  Atom+Function         Bfn.  Coefficient  Atom+Function  
  ----- ------------  ---------------      ----- ------------  ---------------
    48      0.564262  5 F  s                 49      0.400769  5 F  s          
    47      0.282449  5 F  s                  2      0.175183  1 C  s          
     3      0.147288  1 C  s                  6     -0.133289  1 C  py         
    52     -0.113254  5 F  py                32     -0.091960  3 H  s          
    40     -0.091960  4 H  s                  1     -0.090591  1 C  s          

 Vector    4  Occ=2.000000D+00  E=-6.915020D-01  Symmetry=a'
              MO Center=  3.4D-02,  1.0D-01, -3.2D-17, r^2= 1.3D+00
   Bfn.  Coefficient  Atom+Function         Bfn.  Coefficient  Atom+Function  
  ----- ------------  ---------------      ----- ------------  ---------------
     3      1.057315  1 C  s                 32     -0.466954  3 H  s          
    40     -0.466954  4 H  s                  2      0.458888  1 C  s          
    22      0.302533  1 C  dzz               52     -0.295141  5 F  py         
    48     -0.262787  5 F  s                  4     -0.216848  1 C  s          
     1     -0.214045  1 C  s                 49     -0.185598  5 F  s          

 Vector    5  Occ=2.000000D+00  E=-5.467999D-01  Symmetry=a"
              MO Center= -1.1D-01,  1.1D-01, -2.1D-16, r^2= 1.2D+00
   Bfn.  Coefficient  Atom+Function         Bfn.  Coefficient  Atom+Function  
  ----- ------------  ---------------      ----- ------------  ---------------
    53     -0.391956  5 F  pz                 7      0.366345  1 C  pz         
    56      0.256056  5 F  pz                32      0.248582  3 H  s          
    40     -0.248582  4 H  s                 31      0.240819  3 H  s          
    39     -0.240819  4 H  s                 19      0.195519  1 C  dxz        
    38     -0.063323  3 H  pz                46     -0.063323  4 H  pz         

 Vector    6  Occ=2.000000D+00  E=-5.170103D-01  Symmetry=a'
              MO Center=  1.4D-01, -5.3D-02,  1.6D-15, r^2= 1.1D+00
   Bfn.  Coefficient  Atom+Function         Bfn.  Coefficient  Atom+Function  
  ----- ------------  ---------------      ----- ------------  ---------------
    51      0.452809  5 F  px                 3     -0.354147  1 C  s          
     5     -0.329347  1 C  px                54     -0.292926  5 F  px         
    32      0.256801  3 H  s                 40      0.256801  4 H  s          
    23     -0.246933  2 H  s                 22     -0.156015  1 C  dzz        
    31      0.086730  3 H  s                 39      0.086730  4 H  s          

 Vector    7  Occ=2.000000D+00  E=-4.693887D-01  Symmetry=a'
              MO Center= -6.5D-02,  9.1D-02,  2.0D-15, r^2= 1.4D+00
   Bfn.  Coefficient  Atom+Function         Bfn.  Coefficient  Atom+Function  
  ----- ------------  ---------------      ----- ------------  ---------------
     3      0.653959  1 C  s                 52      0.484734  5 F  py         
     6      0.351980  1 C  py                55     -0.266916  5 F  py         
    32     -0.235214  3 H  s                 40     -0.235214  4 H  s          
     2      0.170929  1 C  s                 31      0.149737  3 H  s          
    39      0.149737  4 H  s                 50      0.139606  5 F  s          

 Vector    8  Occ=2.000000D+00  E=-3.402289D-01  Symmetry=a"
              MO Center= -1.0D-01, -6.9D-02, -2.2D-15, r^2= 1.3D+00
   Bfn.  Coefficient  Atom+Function         Bfn.  Coefficient  Atom+Function  
  ----- ------------  ---------------      ----- ------------  ---------------
    53      0.549186  5 F  pz                56     -0.370275  5 F  pz         
     7      0.302174  1 C  pz                31      0.251038  3 H  s          
    39     -0.251038  4 H  s                 32      0.191207  3 H  s          
    40     -0.191207  4 H  s                 19      0.091681  1 C  dxz        
    59     -0.086514  5 F  pz                21      0.073751  1 C  dyz        

 Vector    9  Occ=2.000000D+00  E=-3.169801D-01  Symmetry=a'
              MO Center=  1.4D-01,  1.1D-01,  7.5D-16, r^2= 1.4D+00
   Bfn.  Coefficient  Atom+Function         Bfn.  Coefficient  Atom+Function  
  ----- ------------  ---------------      ----- ------------  ---------------
    51      0.493426  5 F  px                 5      0.346269  1 C  px         
    54     -0.335416  5 F  px                23      0.325835  2 H  s          
     3      0.250438  1 C  s                 32     -0.230335  3 H  s          
    40     -0.230335  4 H  s                 31     -0.154953  3 H  s          
    39     -0.154953  4 H  s                 22      0.121998  1 C  dzz        

 Vector   10  Occ=0.000000D+00  E= 1.293202D-02  Symmetry=a'
              MO Center=  1.5D-02,  1.3D-01, -5.6D-14, r^2= 5.5D+00
   Bfn.  Coefficient  Atom+Function         Bfn.  Coefficient  Atom+Function  
  ----- ------------  ---------------      ----- ------------  ---------------
     4      3.281343  1 C  s                 50     -0.663136  5 F  s          
    20     -0.637509  1 C  dyy                3     -0.516080  1 C  s          
    58     -0.509560  5 F  py                17     -0.377378  1 C  dxx        
     2     -0.310998  1 C  s                  6     -0.252791  1 C  py         
    22     -0.248547  1 C  dzz               32     -0.217614  3 H  s          

 Vector   11  Occ=0.000000D+00  E= 5.215906D-02  Symmetry=a'
              MO Center= -3.5D-02,  1.7D+00, -4.1D-14, r^2= 5.3D+00
   Bfn.  Coefficient  Atom+Function         Bfn.  Coefficient  Atom+Function  
  ----- ------------  ---------------      ----- ------------  ---------------
     3     11.791553  1 C  s                  4     -7.045826  1 C  s          
    32     -3.852717  3 H  s                 40     -3.852717  4 H  s          
    22      2.690698  1 C  dzz               24     -2.304290  2 H  s          
    50      2.274704  5 F  s                 17      1.804930  1 C  dxx        
    20      1.342887  1 C  dyy               38      1.009155  3 H  pz         

 Vector   12  Occ=0.000000D+00  E= 9.188113D-02  Symmetry=a"
              MO Center= -3.3D-01, -8.6D-03,  7.8D-14, r^2= 6.7D+00
   Bfn.  Coefficient  Atom+Function         Bfn.  Coefficient  Atom+Function  
  ----- ------------  ---------------      ----- ------------  ---------------
    32      1.948804  3 H  s                 40     -1.948804  4 H  s          
    59     -1.094402  5 F  pz                38     -1.081638  3 H  pz         
    46     -1.081638  4 H  pz                19      0.736594  1 C  dxz        
    10     -0.556815  1 C  pz                30     -0.473218  2 H  pz         
    21     -0.441431  1 C  dyz                7      0.289613  1 C  pz         

 Vector   13  Occ=0.000000D+00  E= 9.452847D-02  Symmetry=a'
              MO Center=  7.5D-01,  1.4D-02,  2.8D-16, r^2= 5.7D+00
   Bfn.  Coefficient  Atom+Function         Bfn.  Coefficient  Atom+Function  
  ----- ------------  ---------------      ----- ------------  ---------------
    24      1.926843  2 H  s                 28     -1.238365  2 H  px         
     3     -1.176070  1 C  s                 57     -0.885716  5 F  px         
    32     -0.793294  3 H  s                 40     -0.793294  4 H  s          
    58      0.601298  5 F  py                38      0.520762  3 H  pz         
    46     -0.520762  4 H  pz                18     -0.428416  1 C  dxy        

 Vector   14  Occ=0.000000D+00  E= 1.060349D-01  Symmetry=a'
              MO Center= -3.4D-01, -1.1D+00, -9.7D-16, r^2= 6.1D+00
   Bfn.  Coefficient  Atom+Function         Bfn.  Coefficient  Atom+Function  
  ----- ------------  ---------------      ----- ------------  ---------------
    50      3.219639  5 F  s                  3      2.677481  1 C  s          
     4     -2.348216  1 C  s                 58      2.157757  5 F  py         
    24     -2.025578  2 H  s                 32     -1.080343  3 H  s          
    40     -1.080343  4 H  s                 28      0.919768  2 H  px         
    57      0.576456  5 F  px                29      0.547668  2 H  py         

 Vector   15  Occ=0.000000D+00  E= 1.334282D-01  Symmetry=a'
              MO Center= -3.3D-01,  2.7D-03, -3.7D-14, r^2= 5.6D+00
   Bfn.  Coefficient  Atom+Function         Bfn.  Coefficient  Atom+Function  
  ----- ------------  ---------------      ----- ------------  ---------------
    50      2.220992  5 F  s                 32     -1.722705  3 H  s          
    40     -1.722705  4 H  s                 58      1.408276  5 F  py         
     3      1.160517  1 C  s                 22      0.703867  1 C  dzz        
     4     -0.694568  1 C  s                 57     -0.658675  5 F  px         
    36     -0.585415  3 H  px                44     -0.585415  4 H  px         

 Vector   16  Occ=0.000000D+00  E= 1.483708D-01  Symmetry=a"
              MO Center=  3.8D-01,  5.8D-01,  2.8D-14, r^2= 5.2D+00
   Bfn.  Coefficient  Atom+Function         Bfn.  Coefficient  Atom+Function  
  ----- ------------  ---------------      ----- ------------  ---------------
    19      2.481085  1 C  dxz               32      1.720842  3 H  s          
    40     -1.720842  4 H  s                 30     -1.538442  2 H  pz         
    36     -1.064363  3 H  px                44      1.064363  4 H  px         
    38     -0.342610  3 H  pz                46     -0.342610  4 H  pz         
    59     -0.277690  5 F  pz                21     -0.241940  1 C  dyz        

 Vector   17  Occ=0.000000D+00  E= 2.049216D-01  Symmetry=a"
              MO Center= -2.4D-01,  1.3D-01, -9.0D-15, r^2= 6.4D+00
   Bfn.  Coefficient  Atom+Function         Bfn.  Coefficient  Atom+Function  
  ----- ------------  ---------------      ----- ------------  ---------------
    32      1.232968  3 H  s                 40     -1.232968  4 H  s          
    59     -1.174743  5 F  pz                21     -0.828032  1 C  dyz        
    10     -0.709937  1 C  pz                37      0.697490  3 H  py         
    45     -0.697490  4 H  py                30      0.431379  2 H  pz         
    56      0.246047  5 F  pz                53     -0.187695  5 F  pz         

 Vector   18  Occ=0.000000D+00  E= 2.122567D-01  Symmetry=a'
              MO Center=  2.7D-01,  1.6D-01,  2.0D-16, r^2= 6.3D+00
   Bfn.  Coefficient  Atom+Function         Bfn.  Coefficient  Atom+Function  
  ----- ------------  ---------------      ----- ------------  ---------------
    24      1.928503  2 H  s                 57     -1.197798  5 F  px         
     8     -0.775560  1 C  px                 4     -0.690475  1 C  s          
    29      0.691990  2 H  py                32     -0.653171  3 H  s          
    40     -0.653171  4 H  s                 50      0.649580  5 F  s          
    17     -0.517050  1 C  dxx               18     -0.398453  1 C  dxy        

 Vector   19  Occ=0.000000D+00  E= 2.556728D-01  Symmetry=a'
              MO Center= -1.6D-01,  4.0D-01, -2.6D-14, r^2= 5.3D+00
   Bfn.  Coefficient  Atom+Function         Bfn.  Coefficient  Atom+Function  
  ----- ------------  ---------------      ----- ------------  ---------------
     3     21.976286  1 C  s                 32    -10.240157  3 H  s          
    40    -10.240157  4 H  s                 50      7.210360  5 F  s          
     4     -6.085607  1 C  s                 24     -5.468128  2 H  s          
    22      4.039370  1 C  dzz               38      2.749605  3 H  pz         
    46     -2.749605  4 H  pz                17      1.993151  1 C  dxx        

 Vector   20  Occ=0.000000D+00  E= 2.634715D-01  Symmetry=a'
              MO Center= -8.4D-02,  3.3D-01,  5.6D-14, r^2= 8.5D+00
   Bfn.  Coefficient  Atom+Function         Bfn.  Coefficient  Atom+Function  
  ----- ------------  ---------------      ----- ------------  ---------------
     3     38.080682  1 C  s                 32    -13.733349  3 H  s          
    40    -13.733349  4 H  s                  4    -10.592942  1 C  s          
    22      7.824829  1 C  dzz               24     -7.081494  2 H  s          
    17      4.255911  1 C  dxx               50     -3.730220  5 F  s          
    38      3.658053  3 H  pz                46     -3.658053  4 H  pz         

 Vector   21  Occ=0.000000D+00  E= 2.972809D-01  Symmetry=a"
              MO Center= -2.7D-01,  3.2D-01,  1.4D-15, r^2= 6.6D+00
   Bfn.  Coefficient  Atom+Function         Bfn.  Coefficient  Atom+Function  
  ----- ------------  ---------------      ----- ------------  ---------------
    19      2.336850  1 C  dxz               59      1.786236  5 F  pz         
    37      1.373417  3 H  py                45     -1.373417  4 H  py         
    32      1.325096  3 H  s                 40     -1.325096  4 H  s          
    30     -1.214581  2 H  pz                38     -1.202864  3 H  pz         
    46     -1.202864  4 H  pz                36     -0.689403  3 H  px         

 Vector   22  Occ=0.000000D+00  E= 3.103498D-01  Symmetry=a'
              MO Center= -1.1D-01,  9.4D-01, -1.0D-13, r^2= 6.9D+00
   Bfn.  Coefficient  Atom+Function         Bfn.  Coefficient  Atom+Function  
  ----- ------------  ---------------      ----- ------------  ---------------
     3      8.247115  1 C  s                  4      7.799582  1 C  s          
    50     -6.793363  5 F  s                 32     -5.145757  3 H  s          
    40     -5.145757  4 H  s                 24     -2.865837  2 H  s          
    49      2.692425  5 F  s                 20     -2.190578  1 C  dyy        
    58     -1.593378  5 F  py                66      1.283197  5 F  dxx        

 Vector   23  Occ=0.000000D+00  E= 3.159943D-01  Symmetry=a'
              MO Center=  3.8D-01,  3.8D-01, -2.1D-14, r^2= 6.3D+00
   Bfn.  Coefficient  Atom+Function         Bfn.  Coefficient  Atom+Function  
  ----- ------------  ---------------      ----- ------------  ---------------
     3      2.423056  1 C  s                 29      1.775885  2 H  py         
    50      1.666570  5 F  s                 57      1.612322  5 F  px         
    32     -1.538286  3 H  s                 40     -1.538286  4 H  s          
     4     -1.462935  1 C  s                 22      1.087557  1 C  dzz        
    36     -1.058527  3 H  px                44     -1.058527  4 H  px         

 Vector   24  Occ=0.000000D+00  E= 3.435092D-01  Symmetry=a"
              MO Center=  1.1D-01,  6.3D-01,  1.1D-12, r^2= 6.1D+00
   Bfn.  Coefficient  Atom+Function         Bfn.  Coefficient  Atom+Function  
  ----- ------------  ---------------      ----- ------------  ---------------
    32      1.818246  3 H  s                 40     -1.818246  4 H  s          
    30      1.296162  2 H  pz                36     -1.228302  3 H  px         
    44      1.228302  4 H  px                19      1.205935  1 C  dxz        
    10     -1.188933  1 C  pz                38     -1.095976  3 H  pz         
    46     -1.095976  4 H  pz                37     -0.559834  3 H  py         

 Vector   25  Occ=0.000000D+00  E= 3.437974D-01  Symmetry=a'
              MO Center=  7.9D-01,  7.8D-01, -9.8D-13, r^2= 5.2D+00
   Bfn.  Coefficient  Atom+Function         Bfn.  Coefficient  Atom+Function  
  ----- ------------  ---------------      ----- ------------  ---------------
    24      6.347981  2 H  s                  8     -3.408753  1 C  px         
    28     -3.424398  2 H  px                32     -2.212906  3 H  s          
    40     -2.212906  4 H  s                 38      1.723177  3 H  pz         
    46     -1.723177  4 H  pz                50      1.445624  5 F  s          
     4     -1.270548  1 C  s                  3     -1.172141  1 C  s          

 Vector   26  Occ=0.000000D+00  E= 3.784680D-01  Symmetry=a'
              MO Center= -4.0D-01,  7.2D-01,  6.7D-15, r^2= 5.8D+00
   Bfn.  Coefficient  Atom+Function         Bfn.  Coefficient  Atom+Function  
  ----- ------------  ---------------      ----- ------------  ---------------
    50      6.897874  5 F  s                 24      4.373643  2 H  s          
    17     -3.606402  1 C  dxx               49     -2.828782  5 F  s          
     3     -2.524941  1 C  s                 58      2.304340  5 F  py         
     9     -1.465141  1 C  py                36     -1.370396  3 H  px         
    44     -1.370396  4 H  px                18      1.348925  1 C  dxy        

 Vector   27  Occ=0.000000D+00  E= 3.849642D-01  Symmetry=a"
              MO Center= -6.7D-01,  7.6D-01, -2.6D-13, r^2= 5.7D+00
   Bfn.  Coefficient  Atom+Function         Bfn.  Coefficient  Atom+Function  
  ----- ------------  ---------------      ----- ------------  ---------------
    32      6.227434  3 H  s                 40     -6.227434  4 H  s          
    10     -4.378723  1 C  pz                38     -2.732055  3 H  pz         
    46     -2.732055  4 H  pz                36      2.021094  3 H  px         
    44     -2.021094  4 H  px                19     -2.002267  1 C  dxz        
    21      1.276887  1 C  dyz               37     -0.845960  3 H  py         

 Vector   28  Occ=0.000000D+00  E= 3.880135D-01  Symmetry=a'
              MO Center= -3.9D-01,  6.4D-01, -1.2D-13, r^2= 5.1D+00
   Bfn.  Coefficient  Atom+Function         Bfn.  Coefficient  Atom+Function  
  ----- ------------  ---------------      ----- ------------  ---------------
    24      4.668971  2 H  s                 18     -3.327780  1 C  dxy        
    50     -3.196795  5 F  s                  3     -2.692682  1 C  s          
    17     -1.381813  1 C  dxx               37     -1.301197  3 H  py         
    45     -1.301197  4 H  py                22     -1.252954  1 C  dzz        
     4      1.198961  1 C  s                 32      1.071848  3 H  s          

 Vector   29  Occ=0.000000D+00  E= 4.253777D-01  Symmetry=a'
              MO Center=  2.6D-01, -1.7D-02,  3.4D-12, r^2= 7.4D+00
   Bfn.  Coefficient  Atom+Function         Bfn.  Coefficient  Atom+Function  
  ----- ------------  ---------------      ----- ------------  ---------------
    50     17.113335  5 F  s                  3     12.407515  1 C  s          
    24     -9.287553  2 H  s                  4     -6.506830  1 C  s          
    32     -4.764650  3 H  s                 40     -4.764650  4 H  s          
    58      4.775989  5 F  py                49     -3.963353  5 F  s          
    29      3.519963  2 H  py                28      2.902207  2 H  px         

 Vector   30  Occ=0.000000D+00  E= 4.260736D-01  Symmetry=a"
              MO Center=  2.1D-01,  7.2D-01, -3.6D-12, r^2= 5.3D+00
   Bfn.  Coefficient  Atom+Function         Bfn.  Coefficient  Atom+Function  
  ----- ------------  ---------------      ----- ------------  ---------------
    21      5.835461  1 C  dyz               19      3.898788  1 C  dxz        
    37     -2.694111  3 H  py                45      2.694111  4 H  py         
    32      1.790534  3 H  s                 40     -1.790534  4 H  s          
    30     -1.640965  2 H  pz                36     -0.924770  3 H  px         
    44      0.924770  4 H  px                56      0.349994  5 F  pz         

 Vector   31  Occ=0.000000D+00  E= 4.592957D-01  Symmetry=a"
              MO Center=  7.8D-01,  4.1D-01, -2.2D-14, r^2= 5.3D+00
   Bfn.  Coefficient  Atom+Function         Bfn.  Coefficient  Atom+Function  
  ----- ------------  ---------------      ----- ------------  ---------------
    19     11.249885  1 C  dxz               32     10.376161  3 H  s          
    40    -10.376161  4 H  s                 30     -4.683004  2 H  pz         
    38     -3.167049  3 H  pz                46     -3.167049  4 H  pz         
    10     -3.146022  1 C  pz                36     -1.920843  3 H  px         
    44      1.920843  4 H  px                21     -1.807024  1 C  dyz        

 Vector   32  Occ=0.000000D+00  E= 4.774196D-01  Symmetry=a'
              MO Center= -1.6D-01,  5.6D-01,  5.7D-15, r^2= 6.3D+00
   Bfn.  Coefficient  Atom+Function         Bfn.  Coefficient  Atom+Function  
  ----- ------------  ---------------      ----- ------------  ---------------
    24     12.455645  2 H  s                  3     -7.907757  1 C  s          
    32     -6.828909  3 H  s                 40     -6.828909  4 H  s          
    50      4.480599  5 F  s                 22      4.324295  1 C  dzz        
    17     -4.067886  1 C  dxx               28     -3.957249  2 H  px         
     4      3.753007  1 C  s                  8     -2.803660  1 C  px         

 Vector   33  Occ=0.000000D+00  E= 5.230026D-01  Symmetry=a'
              MO Center=  1.5D-01,  7.9D-01,  5.3D-13, r^2= 5.3D+00
   Bfn.  Coefficient  Atom+Function         Bfn.  Coefficient  Atom+Function  
  ----- ------------  ---------------      ----- ------------  ---------------
     3     70.618235  1 C  s                 32    -34.647829  3 H  s          
    40    -34.647829  4 H  s                 22     18.927249  1 C  dzz        
    24    -13.122416  2 H  s                  4    -10.994602  1 C  s          
    17      6.866555  1 C  dxx               20      5.894882  1 C  dyy        
    38      5.924138  3 H  pz                46     -5.924138  4 H  pz         

 Vector   34  Occ=0.000000D+00  E= 6.820951D-01  Symmetry=a'
              MO Center=  1.5D-02, -1.1D+00, -1.7D-13, r^2= 4.2D+00
   Bfn.  Coefficient  Atom+Function         Bfn.  Coefficient  Atom+Function  
  ----- ------------  ---------------      ----- ------------  ---------------
     3     26.219925  1 C  s                 50     15.445539  5 F  s          
    32    -11.472350  3 H  s                 40    -11.472350  4 H  s          
     4     -7.214031  1 C  s                 49     -6.706655  5 F  s          
    24     -5.880816  2 H  s                 69     -4.489397  5 F  dyy        
    22      4.302268  1 C  dzz                9     -4.230560  1 C  py         

 Vector   35  Occ=0.000000D+00  E= 6.991491D-01  Symmetry=a'
              MO Center= -6.4D-02, -2.5D-01, -6.9D-14, r^2= 4.2D+00
   Bfn.  Coefficient  Atom+Function         Bfn.  Coefficient  Atom+Function  
  ----- ------------  ---------------      ----- ------------  ---------------
     3     33.446390  1 C  s                 32    -14.652666  3 H  s          
    40    -14.652666  4 H  s                 50     -7.779942  5 F  s          
    22      7.211843  1 C  dzz               24     -5.651973  2 H  s          
    38      2.855824  3 H  pz                46     -2.855824  4 H  pz         
    58     -2.634582  5 F  py                 9     -2.604650  1 C  py         

 Vector   36  Occ=0.000000D+00  E= 7.291683D-01  Symmetry=a'
              MO Center= -1.2D-01, -4.1D-01,  3.9D-16, r^2= 4.2D+00
   Bfn.  Coefficient  Atom+Function         Bfn.  Coefficient  Atom+Function  
  ----- ------------  ---------------      ----- ------------  ---------------
     3     13.826002  1 C  s                 24     -9.675082  2 H  s          
     8      4.497388  1 C  px                28      3.164110  2 H  px         
    17      2.630894  1 C  dxx                4     -2.606838  1 C  s          
    67     -2.425755  5 F  dxy                9     -1.335913  1 C  py         
    57     -1.270060  5 F  px                20      1.188510  1 C  dyy        

 Vector   37  Occ=0.000000D+00  E= 7.340718D-01  Symmetry=a"
              MO Center= -2.9D-02, -4.5D-01,  1.1D-13, r^2= 4.0D+00
   Bfn.  Coefficient  Atom+Function         Bfn.  Coefficient  Atom+Function  
  ----- ------------  ---------------      ----- ------------  ---------------
    32     -5.477727  3 H  s                 40      5.477727  4 H  s          
    10      5.199059  1 C  pz                70     -2.672463  5 F  dyz        
    38      2.027778  3 H  pz                46      2.027778  4 H  pz         
    19     -1.497085  1 C  dxz               21     -1.320703  1 C  dyz        
    59     -1.284833  5 F  pz                30      0.945898  2 H  pz         

 Vector   38  Occ=0.000000D+00  E= 7.409168D-01  Symmetry=a"
              MO Center= -3.1D-01, -2.8D-01,  5.0D-14, r^2= 3.6D+00
   Bfn.  Coefficient  Atom+Function         Bfn.  Coefficient  Atom+Function  
  ----- ------------  ---------------      ----- ------------  ---------------
    19      4.696294  1 C  dxz               21     -3.937675  1 C  dyz        
    32      3.284190  3 H  s                 40     -3.284190  4 H  s          
    68     -2.330548  5 F  dxz               37      2.166626  3 H  py         
    45     -2.166626  4 H  py                30     -1.439202  2 H  pz         
    10     -1.346684  1 C  pz                38     -0.931811  3 H  pz         

 Vector   39  Occ=0.000000D+00  E= 7.684505D-01  Symmetry=a'
              MO Center=  3.0D-01, -4.8D-01, -3.3D-14, r^2= 3.3D+00
   Bfn.  Coefficient  Atom+Function         Bfn.  Coefficient  Atom+Function  
  ----- ------------  ---------------      ----- ------------  ---------------
     3      4.933931  1 C  s                 32     -2.872459  3 H  s          
    40     -2.872459  4 H  s                 18     -2.763851  1 C  dxy        
    50     -2.636110  5 F  s                 22      2.364970  1 C  dzz        
    66      1.617713  5 F  dxx               29      1.554252  2 H  py         
    37     -1.176730  3 H  py                45     -1.176730  4 H  py         

 Vector   40  Occ=0.000000D+00  E= 8.881905D-01  Symmetry=a"
              MO Center= -1.9D-01,  2.4D-01, -7.8D-15, r^2= 3.7D+00
   Bfn.  Coefficient  Atom+Function         Bfn.  Coefficient  Atom+Function  
  ----- ------------  ---------------      ----- ------------  ---------------
    32      5.850369  3 H  s                 40     -5.850369  4 H  s          
    10     -4.441191  1 C  pz                19     -2.852901  1 C  dxz        
    36      1.700220  3 H  px                44     -1.700220  4 H  px         
    38     -1.677045  3 H  pz                46     -1.677045  4 H  pz         
    59     -1.388302  5 F  pz                70     -0.908847  5 F  dyz        

 Vector   41  Occ=0.000000D+00  E= 9.318115D-01  Symmetry=a'
              MO Center=  5.4D-03,  6.9D-01,  5.8D-14, r^2= 4.0D+00
   Bfn.  Coefficient  Atom+Function         Bfn.  Coefficient  Atom+Function  
  ----- ------------  ---------------      ----- ------------  ---------------
     3      8.628327  1 C  s                 22     -3.183715  1 C  dzz        
    17      3.020903  1 C  dxx               32     -2.963149  3 H  s          
    40     -2.963149  4 H  s                 38      2.836121  3 H  pz         
    46     -2.836121  4 H  pz                50      2.322522  5 F  s          
     4     -2.000593  1 C  s                 24     -1.269831  2 H  s          

 Vector   42  Occ=0.000000D+00  E= 9.452157D-01  Symmetry=a'
              MO Center=  4.5D-01,  4.8D-01,  4.5D-14, r^2= 3.5D+00
   Bfn.  Coefficient  Atom+Function         Bfn.  Coefficient  Atom+Function  
  ----- ------------  ---------------      ----- ------------  ---------------
     3     32.517557  1 C  s                 24    -19.326384  2 H  s          
    32     -9.740494  3 H  s                 40     -9.740494  4 H  s          
     8      5.433903  1 C  px                28      5.364133  2 H  px         
    22      3.657858  1 C  dzz               17      3.248998  1 C  dxx        
    50      2.202628  5 F  s                 38      2.120417  3 H  pz         

 Vector   43  Occ=0.000000D+00  E= 9.806876D-01  Symmetry=a'
              MO Center= -4.2D-01,  7.5D-01, -8.7D-14, r^2= 3.5D+00
   Bfn.  Coefficient  Atom+Function         Bfn.  Coefficient  Atom+Function  
  ----- ------------  ---------------      ----- ------------  ---------------
     3     30.208430  1 C  s                 32    -19.121120  3 H  s          
    40    -19.121120  4 H  s                 22      6.962268  1 C  dzz        
     8     -3.835169  1 C  px                38      3.142058  3 H  pz         
    46     -3.142058  4 H  pz                 4      2.633991  1 C  s          
    36     -2.590708  3 H  px                44     -2.590708  4 H  px         

 Vector   44  Occ=0.000000D+00  E= 1.015713D+00  Symmetry=a'
              MO Center= -2.8D-02,  3.6D-01, -1.6D-13, r^2= 3.9D+00
   Bfn.  Coefficient  Atom+Function         Bfn.  Coefficient  Atom+Function  
  ----- ------------  ---------------      ----- ------------  ---------------
     3     41.603350  1 C  s                 32    -18.710485  3 H  s          
    40    -18.710485  4 H  s                 24    -10.264509  2 H  s          
     4     -9.758610  1 C  s                 50      8.958006  5 F  s          
    22      8.462420  1 C  dzz               49     -6.119514  5 F  s          
     9     -5.148061  1 C  py                20      5.165178  1 C  dyy        

 Vector   45  Occ=0.000000D+00  E= 1.152529D+00  Symmetry=a"
              MO Center= -4.3D-02,  7.9D-01,  2.4D-13, r^2= 3.1D+00
   Bfn.  Coefficient  Atom+Function         Bfn.  Coefficient  Atom+Function  
  ----- ------------  ---------------      ----- ------------  ---------------
    32     10.838111  3 H  s                 40    -10.838111  4 H  s          
    19     10.523163  1 C  dxz               10     -7.400593  1 C  pz         
    38     -3.011343  3 H  pz                46     -3.011343  4 H  pz         
    30     -2.981327  2 H  pz                36     -1.725778  3 H  px         
    44      1.725778  4 H  px                31      1.066949  3 H  s          

 Vector   46  Occ=0.000000D+00  E= 1.316576D+00  Symmetry=a'
              MO Center=  1.3D-01,  2.8D-01, -1.2D-14, r^2= 3.0D+00
   Bfn.  Coefficient  Atom+Function         Bfn.  Coefficient  Atom+Function  
  ----- ------------  ---------------      ----- ------------  ---------------
     3     31.736234  1 C  s                 32    -18.303861  3 H  s          
    40    -18.303861  4 H  s                 22     10.960427  1 C  dzz        
     4     -6.381962  1 C  s                 24     -6.021507  2 H  s          
    50     -5.601838  5 F  s                 17      5.263134  1 C  dxx        
    20      3.399898  1 C  dyy               38      3.222165  3 H  pz         

 Vector   47  Occ=0.000000D+00  E= 1.359287D+00  Symmetry=a"
              MO Center=  1.4D-02, -1.7D-02,  4.7D-14, r^2= 2.3D+00
   Bfn.  Coefficient  Atom+Function         Bfn.  Coefficient  Atom+Function  
  ----- ------------  ---------------      ----- ------------  ---------------
    32      4.417422  3 H  s                 40     -4.417422  4 H  s          
    19      2.707218  1 C  dxz               21     -2.601824  1 C  dyz        
    10     -2.550324  1 C  pz                38     -1.532402  3 H  pz         
    46     -1.532402  4 H  pz                56     -1.060868  5 F  pz         
    30     -0.978254  2 H  pz                37      0.878369  3 H  py         

 Vector   48  Occ=0.000000D+00  E= 1.360321D+00  Symmetry=a'
              MO Center=  1.5D-01,  2.1D-01,  8.0D-16, r^2= 2.6D+00
   Bfn.  Coefficient  Atom+Function         Bfn.  Coefficient  Atom+Function  
  ----- ------------  ---------------      ----- ------------  ---------------
     3     21.233849  1 C  s                 32    -10.024893  3 H  s          
    40    -10.024893  4 H  s                 24     -7.700569  2 H  s          
    22      6.539862  1 C  dzz               50     -5.013125  5 F  s          
     4     -4.220193  1 C  s                 17      4.200523  1 C  dxx        
    49      2.531633  5 F  s                 20      2.359886  1 C  dyy        

 Vector   49  Occ=0.000000D+00  E= 1.586496D+00  Symmetry=a"
              MO Center= -1.5D-01,  6.5D-01, -2.3D-15, r^2= 2.0D+00
   Bfn.  Coefficient  Atom+Function         Bfn.  Coefficient  Atom+Function  
  ----- ------------  ---------------      ----- ------------  ---------------
    19      3.764372  1 C  dxz               30     -1.732181  2 H  pz         
    10      1.232018  1 C  pz                21     -0.728077  1 C  dyz        
    36     -0.705949  3 H  px                44      0.705949  4 H  px         
    13     -0.650420  1 C  dxz               32      0.585657  3 H  s          
    40     -0.585657  4 H  s                 33     -0.553180  3 H  px         

 Vector   50  Occ=0.000000D+00  E= 1.733229D+00  Symmetry=a"
              MO Center=  3.0D-01,  4.7D-01, -2.8D-14, r^2= 1.9D+00
   Bfn.  Coefficient  Atom+Function         Bfn.  Coefficient  Atom+Function  
  ----- ------------  ---------------      ----- ------------  ---------------
    32      2.956933  3 H  s                 40     -2.956933  4 H  s          
    10     -2.427733  1 C  pz                38     -0.928489  3 H  pz         
    46     -0.928489  4 H  pz                27      0.765552  2 H  pz         
    70     -0.718808  5 F  dyz               36      0.609096  3 H  px         
    44     -0.609096  4 H  px                15     -0.509996  1 C  dyz        

 Vector   51  Occ=0.000000D+00  E= 1.734596D+00  Symmetry=a'
              MO Center= -3.7D-02,  3.7D-01,  2.4D-15, r^2= 2.0D+00
   Bfn.  Coefficient  Atom+Function         Bfn.  Coefficient  Atom+Function  
  ----- ------------  ---------------      ----- ------------  ---------------
     3      7.312847  1 C  s                 24     -5.313977  2 H  s          
    32     -2.600181  3 H  s                 40     -2.600181  4 H  s          
     4     -1.848117  1 C  s                 50      1.726849  5 F  s          
    22      1.581064  1 C  dzz               28      1.573840  2 H  px         
    17      1.506608  1 C  dxx                8      1.409102  1 C  px         

 Vector   52  Occ=0.000000D+00  E= 1.805991D+00  Symmetry=a'
              MO Center=  1.5D-01,  3.0D-01, -2.9D-15, r^2= 2.3D+00
   Bfn.  Coefficient  Atom+Function         Bfn.  Coefficient  Atom+Function  
  ----- ------------  ---------------      ----- ------------  ---------------
     3     10.153105  1 C  s                  9     -3.277380  1 C  py         
    49     -2.877137  5 F  s                 50     -2.875386  5 F  s          
    24     -2.367163  2 H  s                 55     -1.833263  5 F  py         
    20      1.337313  1 C  dyy               32     -1.117275  3 H  s          
    40     -1.117275  4 H  s                 58     -1.099450  5 F  py         

 Vector   53  Occ=0.000000D+00  E= 1.990668D+00  Symmetry=a'
              MO Center= -3.8D-02,  3.9D-01,  8.8D-15, r^2= 2.3D+00
   Bfn.  Coefficient  Atom+Function         Bfn.  Coefficient  Atom+Function  
  ----- ------------  ---------------      ----- ------------  ---------------
    24      5.106872  2 H  s                 32     -4.504247  3 H  s          
    40     -4.504247  4 H  s                  8     -4.277436  1 C  px         
    22      2.988283  1 C  dzz               50     -1.370264  5 F  s          
     3      1.346726  1 C  s                 17     -1.242242  1 C  dxx        
    28     -1.231959  2 H  px                54      1.176954  5 F  px         

 Vector   54  Occ=0.000000D+00  E= 2.019605D+00  Symmetry=a"
              MO Center=  6.2D-02,  1.9D-01, -2.6D-13, r^2= 2.3D+00
   Bfn.  Coefficient  Atom+Function         Bfn.  Coefficient  Atom+Function  
  ----- ------------  ---------------      ----- ------------  ---------------
    10      5.895619  1 C  pz                32     -5.339007  3 H  s          
    40      5.339007  4 H  s                 19     -2.936243  1 C  dxz        
    70     -1.729714  5 F  dyz               38      1.528163  3 H  pz         
    46      1.528163  4 H  pz                56     -1.525666  5 F  pz         
    21     -1.304624  1 C  dyz               30      0.897551  2 H  pz         

 Vector   55  Occ=0.000000D+00  E= 2.078684D+00  Symmetry=a'
              MO Center= -7.6D-02, -8.7D-01,  2.1D-13, r^2= 2.0D+00
   Bfn.  Coefficient  Atom+Function         Bfn.  Coefficient  Atom+Function  
  ----- ------------  ---------------      ----- ------------  ---------------
     3     16.223530  1 C  s                 50      8.648936  5 F  s          
    32     -6.136257  3 H  s                 40     -6.136257  4 H  s          
    24     -4.567372  2 H  s                  4     -3.861856  1 C  s          
    69     -3.435289  5 F  dyy                9     -3.001523  1 C  py         
    66     -2.931968  5 F  dxx               71     -2.942951  5 F  dzz        

 Vector   56  Occ=0.000000D+00  E= 2.082895D+00  Symmetry=a'
              MO Center= -1.1D-01,  2.4D-01,  5.2D-14, r^2= 2.2D+00
   Bfn.  Coefficient  Atom+Function         Bfn.  Coefficient  Atom+Function  
  ----- ------------  ---------------      ----- ------------  ---------------
     3     24.210638  1 C  s                 32    -10.559018  3 H  s          
    40    -10.559018  4 H  s                 24     -5.833013  2 H  s          
    22      3.976408  1 C  dzz               50     -3.406805  5 F  s          
    49     -2.402347  5 F  s                 38      2.326223  3 H  pz         
    46     -2.326223  4 H  pz                17      2.307330  1 C  dxx        

 Vector   57  Occ=0.000000D+00  E= 2.179797D+00  Symmetry=a'
              MO Center=  8.6D-02,  5.0D-01, -5.8D-15, r^2= 1.9D+00
   Bfn.  Coefficient  Atom+Function         Bfn.  Coefficient  Atom+Function  
  ----- ------------  ---------------      ----- ------------  ---------------
     3     13.534381  1 C  s                 24     -6.045289  2 H  s          
    32     -3.818081  3 H  s                 40     -3.818081  4 H  s          
    22      2.265443  1 C  dzz               49     -1.996021  5 F  s          
    28      1.920501  2 H  px                 9     -1.618804  1 C  py         
    50     -1.591570  5 F  s                  8      1.076033  1 C  px         

 Vector   58  Occ=0.000000D+00  E= 2.201224D+00  Symmetry=a'
              MO Center=  1.2D-01,  4.7D-01,  1.7D-14, r^2= 1.5D+00
   Bfn.  Coefficient  Atom+Function         Bfn.  Coefficient  Atom+Function  
  ----- ------------  ---------------      ----- ------------  ---------------
    32     -3.283008  3 H  s                 40     -3.283008  4 H  s          
     3      3.084329  1 C  s                  8     -1.889230  1 C  px         
    50      1.824627  5 F  s                 12      1.685528  1 C  dxy        
    22      1.533845  1 C  dzz                4     -0.945509  1 C  s          
    24      0.875139  2 H  s                 67      0.831466  5 F  dxy        

 Vector   59  Occ=0.000000D+00  E= 2.308701D+00  Symmetry=a"
              MO Center= -1.8D-01,  5.5D-01, -2.3D-14, r^2= 1.4D+00
   Bfn.  Coefficient  Atom+Function         Bfn.  Coefficient  Atom+Function  
  ----- ------------  ---------------      ----- ------------  ---------------
    15      1.646482  1 C  dyz               19     -0.653068  1 C  dxz        
    34     -0.655882  3 H  py                42      0.655882  4 H  py         
    32     -0.443752  3 H  s                 40      0.443752  4 H  s          
    64     -0.355403  5 F  dyz               37      0.273932  3 H  py         
    45     -0.273932  4 H  py                70      0.257429  5 F  dyz        

 Vector   60  Occ=0.000000D+00  E= 2.389703D+00  Symmetry=a'
              MO Center=  2.0D-01,  2.1D-01,  1.5D-13, r^2= 1.7D+00
   Bfn.  Coefficient  Atom+Function         Bfn.  Coefficient  Atom+Function  
  ----- ------------  ---------------      ----- ------------  ---------------
     3     13.528250  1 C  s                 32     -7.560772  3 H  s          
    40     -7.560772  4 H  s                 22      3.967208  1 C  dzz        
    24     -3.284174  2 H  s                  4     -2.494995  1 C  s          
    17      1.778318  1 C  dxx               20      1.745463  1 C  dyy        
    55      1.518987  5 F  py                38      1.335009  3 H  pz         

 Vector   61  Occ=0.000000D+00  E= 2.421097D+00  Symmetry=a"
              MO Center= -8.5D-03,  6.4D-01, -8.6D-14, r^2= 1.8D+00
   Bfn.  Coefficient  Atom+Function         Bfn.  Coefficient  Atom+Function  
  ----- ------------  ---------------      ----- ------------  ---------------
    32     -2.317488  3 H  s                 40      2.317488  4 H  s          
    10      2.299496  1 C  pz                19      1.699996  1 C  dxz        
     7      0.798136  1 C  pz                36     -0.763000  3 H  px         
    44      0.763000  4 H  px                27     -0.749281  2 H  pz         
    38      0.689693  3 H  pz                46      0.689693  4 H  pz         

 Vector   62  Occ=0.000000D+00  E= 2.867599D+00  Symmetry=a"
              MO Center= -1.1D-01,  6.2D-01, -3.5D-13, r^2= 1.3D+00
   Bfn.  Coefficient  Atom+Function         Bfn.  Coefficient  Atom+Function  
  ----- ------------  ---------------      ----- ------------  ---------------
    32      2.938965  3 H  s                 40     -2.938965  4 H  s          
    10     -2.149076  1 C  pz                13      2.117891  1 C  dxz        
    19      1.925619  1 C  dxz               35     -0.915597  3 H  pz         
    43     -0.915597  4 H  pz                31      0.904400  3 H  s          
    39     -0.904400  4 H  s                  7     -0.887821  1 C  pz         

 Vector   63  Occ=0.000000D+00  E= 2.890536D+00  Symmetry=a'
              MO Center=  4.4D-01,  5.7D-01,  3.3D-13, r^2= 1.3D+00
   Bfn.  Coefficient  Atom+Function         Bfn.  Coefficient  Atom+Function  
  ----- ------------  ---------------      ----- ------------  ---------------
     3     12.506157  1 C  s                 24     -6.388580  2 H  s          
    32     -4.883876  3 H  s                 40     -4.883876  4 H  s          
    22      2.226930  1 C  dzz                8      1.812815  1 C  px         
    28      1.716901  2 H  px                25      1.478393  2 H  px         
    23     -1.226543  2 H  s                 17      1.145568  1 C  dxx        

 Vector   64  Occ=0.000000D+00  E= 3.218282D+00  Symmetry=a'
              MO Center= -1.3D-01,  4.5D-01,  3.1D-14, r^2= 1.4D+00
   Bfn.  Coefficient  Atom+Function         Bfn.  Coefficient  Atom+Function  
  ----- ------------  ---------------      ----- ------------  ---------------
     3      7.783454  1 C  s                 32     -4.701934  3 H  s          
    40     -4.701934  4 H  s                 22      1.738311  1 C  dzz        
    16      1.482041  1 C  dzz                8     -1.269441  1 C  px         
    31     -1.000035  3 H  s                 39     -1.000035  4 H  s          
    11     -0.947156  1 C  dxx               35      0.866189  3 H  pz         

 Vector   65  Occ=0.000000D+00  E= 3.369393D+00  Symmetry=a"
              MO Center= -2.3D-02, -6.3D-01, -4.2D-16, r^2= 5.9D-01
   Bfn.  Coefficient  Atom+Function         Bfn.  Coefficient  Atom+Function  
  ----- ------------  ---------------      ----- ------------  ---------------
    62      1.796427  5 F  dxz               21     -0.886934  1 C  dyz        
    68     -0.822504  5 F  dxz               19      0.616429  1 C  dxz        
    37      0.487677  3 H  py                45     -0.487677  4 H  py         
    13     -0.290942  1 C  dxz               64      0.219682  5 F  dyz        
    10      0.181427  1 C  pz                30     -0.152380  2 H  pz         

 Vector   66  Occ=0.000000D+00  E= 3.394281D+00  Symmetry=a'
              MO Center= -8.3D-05, -5.7D-01,  4.5D-16, r^2= 7.2D-01
   Bfn.  Coefficient  Atom+Function         Bfn.  Coefficient  Atom+Function  
  ----- ------------  ---------------      ----- ------------  ---------------
    60      0.897657  5 F  dxx               65     -0.848253  5 F  dzz        
    18      0.643780  1 C  dxy               50      0.615057  5 F  s          
    66     -0.579250  5 F  dxx               22     -0.541538  1 C  dzz        
    29     -0.431256  2 H  py                 8     -0.406650  1 C  px         
    16      0.395185  1 C  dzz               49     -0.343270  5 F  s          

 Vector   67  Occ=0.000000D+00  E= 3.555993D+00  Symmetry=a'
              MO Center= -1.4D-02, -4.6D-01,  3.5D-16, r^2= 9.0D-01
   Bfn.  Coefficient  Atom+Function         Bfn.  Coefficient  Atom+Function  
  ----- ------------  ---------------      ----- ------------  ---------------
    24      2.837514  2 H  s                 61      1.754981  5 F  dxy        
    32     -1.544315  3 H  s                 40     -1.544315  4 H  s          
     8     -1.508768  1 C  px                22      0.713574  1 C  dzz        
    67     -0.712097  5 F  dxy               12      0.652477  1 C  dxy        
    28     -0.655011  2 H  px                23      0.564938  2 H  s          

 Vector   68  Occ=0.000000D+00  E= 3.569522D+00  Symmetry=a"
              MO Center= -9.2D-05, -5.2D-01,  2.6D-15, r^2= 8.2D-01
   Bfn.  Coefficient  Atom+Function         Bfn.  Coefficient  Atom+Function  
  ----- ------------  ---------------      ----- ------------  ---------------
    32      2.132097  3 H  s                 40     -2.132097  4 H  s          
    64      1.802563  5 F  dyz               10     -1.614238  1 C  pz         
    15      0.766850  1 C  dyz               70     -0.741048  5 F  dyz        
    19      0.697659  1 C  dxz               38     -0.534651  3 H  pz         
    46     -0.534651  4 H  pz                59     -0.454337  5 F  pz         

 Vector   69  Occ=0.000000D+00  E= 4.038779D+00  Symmetry=a'
              MO Center= -1.5D-02, -3.0D-01,  4.1D-16, r^2= 9.8D-01
   Bfn.  Coefficient  Atom+Function         Bfn.  Coefficient  Atom+Function  
  ----- ------------  ---------------      ----- ------------  ---------------
    49      3.033728  5 F  s                  3     -2.576041  1 C  s          
     9      2.049861  1 C  py                50     -1.467520  5 F  s          
    55      1.459006  5 F  py                63      1.063795  5 F  dyy        
     4      0.951713  1 C  s                 14     -0.844932  1 C  dyy        
    16      0.780863  1 C  dzz               66      0.692864  5 F  dxx        

 Vector   70  Occ=0.000000D+00  E= 5.338645D+00  Symmetry=a'
              MO Center= -3.9D-02,  6.7D-01, -5.7D-16, r^2= 6.4D-01
   Bfn.  Coefficient  Atom+Function         Bfn.  Coefficient  Atom+Function  
  ----- ------------  ---------------      ----- ------------  ---------------
     3     -3.981616  1 C  s                  2      3.659105  1 C  s          
    16     -2.275316  1 C  dzz               11     -1.992553  1 C  dxx        
    14     -1.962934  1 C  dyy               32      1.382143  3 H  s          
    40      1.382143  4 H  s                  4      1.295456  1 C  s          
    22     -1.179396  1 C  dzz               50      0.961662  5 F  s          

 Vector   71  Occ=0.000000D+00  E= 7.317181D+00  Symmetry=a'
              MO Center= -6.6D-03, -6.5D-01, -9.6D-17, r^2= 6.2D-01
   Bfn.  Coefficient  Atom+Function         Bfn.  Coefficient  Atom+Function  
  ----- ------------  ---------------      ----- ------------  ---------------
    50      3.681510  5 F  s                 63     -1.643030  5 F  dyy        
    60     -1.611635  5 F  dxx               65     -1.612983  5 F  dzz        
    49      1.548498  5 F  s                 66     -1.371576  5 F  dxx        
    71     -1.359497  5 F  dzz               48      1.348968  5 F  s          
    69     -1.154828  5 F  dyy                4     -1.137921  1 C  s          


 center of mass
 --------------
 x =  -0.01467448 y =  -0.14384398 z =   0.00000000

 moments of inertia (a.u.)
 ------------------
          58.138900823529           0.000000000000           0.000000000000
           0.000000000000          12.586315385939           0.000000000000
           0.000000000000           0.000000000000          55.747584973798

     Multipole analysis of the density
     ---------------------------------

     L   x y z        total         alpha         beta         nuclear
     -   - - -        -----         -----         ----         -------
     0   0 0 0     -0.000000     -9.000000     -9.000000     18.000000

     1   1 0 0      0.034092      0.017046      0.017046     -0.000000
     1   0 1 0      0.527014      0.263507      0.263507      0.000000
     1   0 0 1      0.000000      0.000000      0.000000      0.000000

     2   2 0 0     -9.095006     -7.067559     -7.067559      5.040113
     2   1 1 0      0.027652     -0.175548     -0.175548      0.378749
     2   1 0 1     -0.000000     -0.000000     -0.000000      0.000000
     2   0 2 0    -10.447747    -18.815388    -18.815388     27.183029
     2   0 1 1     -0.000000     -0.000000     -0.000000      0.000000
     2   0 0 2     -8.238248     -7.834459     -7.834459      7.430671


 Parallel integral file used      42 records with       0 large values


            General Information
            -------------------
          SCF calculation type: DFT
          Wavefunction type:  closed shell.
          No. of atoms     :     5
          No. of electrons :    18
           Alpha electrons :     9
            Beta electrons :     9
          Charge           :     0
          Spin multiplicity:     1
          Use of symmetry is: on ; symmetry adaption is: on 
          Maximum number of iterations: 200
          AO basis - number of functions:    71
                     number of shells:    29
          Convergence on energy requested:  1.00D-06
          Convergence on density requested:  1.00D-05
          Convergence on gradient requested:  5.00D-04

              XC Information
              --------------
                         B3LYP Method XC Potential
                     Hartree-Fock (Exact) Exchange  0.200          
                        Slater Exchange Functional  0.800 local    
                    Becke 1988 Exchange Functional  0.720 non-local
              Lee-Yang-Parr Correlation Functional  0.810          
                  VWN I RPA Correlation Functional  0.190 local    

             Grid Information
             ----------------
          Grid used for XC integration:  xfine     
          Radial quadrature: Mura-Knowles        
          Angular quadrature: Lebedev. 
          Tag              B.-S. Rad. Rad. Pts. Rad. Cut. Ang. Pts.
          ---              ---------- --------- --------- ---------
          C                   0.70      100           8.0      1454
          H                   0.35      100           8.0      1202
          F                   0.50      100           8.0      1454
          Grid pruning is: on 
          Number of quadrature shells:   400
          Spatial weights used:  Erf1

          Convergence Information
          -----------------------
          Convergence aids based upon iterative change in 
          total energy or number of iterations. 
          Levelshifting, if invoked, occurs when the 
          HOMO/LUMO gap drops below (HL_TOL):  1.00D-02
          DIIS, if invoked, will attempt to extrapolate 
          using up to (NFOCK): 10 stored Fock matrices.

                    Damping( 0%)  Levelshifting(0.5)       DIIS
                  --------------- ------------------- ---------------
          dE  on:    start            ASAP                start   
          dE off:    2 iters        200 iters           200 iters 


      Screening Tolerance Information
      -------------------------------
          Density screening/tol_rho:  1.00D-10
          AO Gaussian exp screening on grid/accAOfunc:  14
          CD Gaussian exp screening on grid/accCDfunc:  20
          XC Gaussian exp screening on grid/accXCfunc:  20
          Schwarz screening/accCoul:  1.00D-08



                            NWChem DFT Gradient Module
                            --------------------------


                               CH3F acetone opt+freq



  charge          =   0.00
  wavefunction    = closed shell

  Using symmetry


                         DFT ENERGY GRADIENTS

    atom               coordinates                        gradient
                 x          y          z           x          y          z
   1 C      -0.063154   1.227279   0.000000   -0.040476  -0.011695   0.000000
   2 H       1.977315   1.269429   0.000000   -0.020029  -0.057150   0.000000
   3 H      -0.743310   1.213230   1.927521    0.026418  -0.063369  -0.007167
   4 H      -0.743310   1.213230  -1.927521    0.026418  -0.063369   0.007167
   5 F      -0.012419  -1.228840   0.000000    0.007670   0.195584   0.000000

                 ----------------------------------------
                 |  Time  |  1-e(secs)   |  2-e(secs)   |
                 ----------------------------------------
                 |  CPU   |       0.06   |       1.22   |
                 ----------------------------------------
                 |  WALL  |       0.02   |       1.13   |
                 ----------------------------------------
  no constraints, skipping    0.0000000000000000     

@ Step       Energy      Delta E   Gmax     Grms     Xrms     Xmax   Walltime
@ ---- ---------------- -------- -------- -------- -------- -------- --------
@    0    -139.57438584  0.0D+00  0.19538  0.07262  0.00000  0.00000     16.3
                                                                    



                                Z-matrix (autoz)
                                -------- 

 Units are Angstrom for bonds and degrees for angles

      Type          Name      I     J     K     L     M      Value     Gradient
      ----------- --------  ----- ----- ----- ----- ----- ---------- ----------
    1 Stretch                  1     2                       1.08000   -0.02121
    2 Stretch                  1     3                       1.08167   -0.01511
    3 Stretch                  1     4                       1.08167   -0.01511
    4 Stretch                  1     5                       1.30000   -0.19538
    5 Bend                     2     1     3               109.44003   -0.00767
    6 Bend                     2     1     4               109.44003   -0.00767
    7 Bend                     2     1     5                90.00000   -0.06125
    8 Bend                     3     1     4               141.11993    0.01535
    9 Bend                     3     1     5                90.00000   -0.06913
   10 Bend                     4     1     5                90.00000   -0.06913

 Restricting large step in mode    2 eval= 2.3D-02 step= 4.2D+00 new= 3.0D-01
 Restricting large step in mode    3 eval= 3.3D-02 step=-4.4D-01 new=-3.0D-01
 Restricting large step in mode    6 eval= 3.2D-01 step= 5.7D-01 new= 3.0D-01
 Restricting overall step due to large component. alpha=  0.89
  no constraints, skipping    0.0000000000000000     
  no constraints, skipping    0.0000000000000000     
[...]
           5     0.11181    -0.66257     0.00000     0.00000     0.59784     0.17665
           6     0.00000     0.00000     0.27061     0.70581    -0.00000    -0.00000
           7    -0.00843     0.23873     0.06221     0.37765     0.44234    -0.22913
           8     0.11097     0.32628    -0.57683     0.28381     0.18038     0.50824
           9     0.02027     0.07865     0.13755     0.06679     0.18096    -0.35895
          10    -0.00843     0.23873    -0.06221    -0.37765     0.44234    -0.22913
          11     0.11097     0.32628     0.57683    -0.28381     0.18038     0.50824
          12    -0.02027    -0.07865     0.13755     0.06679    -0.18096     0.35895
          13    -0.00434     0.04601    -0.00000     0.00000    -0.00759     0.00529
          14    -0.15044    -0.00161     0.00000    -0.00000    -0.01513    -0.01882
          15     0.00000     0.00000     0.04606    -0.00922    -0.00000     0.00000

                   13          14          15
 
 Frequency       3050.71     3155.00     3156.23
 
           1    -0.00177    -0.09176    -0.00000
           2    -0.03968     0.00288     0.00000
           3    -0.00000     0.00000    -0.09185
           4     0.55343     0.73915     0.00000
           5     0.15485     0.20543     0.00000
           6    -0.00000     0.00000    -0.01450
           7    -0.26567     0.17161    -0.31924
           8     0.17593    -0.11968     0.20608
           9     0.46907    -0.32848     0.54900
          10    -0.26567     0.17161     0.31924
          11     0.17593    -0.11968    -0.20608
          12    -0.46907     0.32848     0.54900
          13    -0.00005     0.00054    -0.00000
          14    -0.00182    -0.00002     0.00000
          15    -0.00000    -0.00000     0.00054



 ----------------------------------------------------------------------------
 Normal Eigenvalue ||         Derivative Dipole Moments (debye/angs)
  Mode   [cm**-1]  ||      [d/dqX]             [d/dqY]           [d/dqZ]
 ------ ---------- || ------------------ ------------------ -----------------
    1      -36.800 ||      -0.000               0.000             0.101
    2       -2.184 ||       0.006              -0.000            -0.000
    3        1.401 ||      -0.000              -0.000             0.010
    4        8.509 ||      -0.003               0.000            -0.000
    5       44.457 ||       0.000              -0.000            -0.503
    6       44.775 ||       0.508              -0.009             0.000
    7      992.837 ||       0.058               2.018            -0.000
    8     1178.076 ||      -0.207               0.012            -0.000
    9     1179.551 ||       0.000              -0.000            -0.202
   10     1439.791 ||      -0.000              -0.000             0.571
   11     1442.621 ||       0.482              -0.044             0.000
   12     1444.001 ||      -0.354              -0.043            -0.000
   13     3050.715 ||      -0.030              -0.850            -0.000
   14     3155.001 ||      -0.703               0.020             0.000
   15     3156.232 ||      -0.000               0.000            -0.705
 ----------------------------------------------------------------------------



  
  
 ----------------------------------------------------------------------------
 Normal Eigenvalue ||                 Infra Red Intensities
  Mode   [cm**-1]  || [atomic units] [(debye/angs)**2] [(KM/mol)] [arbitrary]
 ------ ---------- || -------------- ----------------- ---------- -----------
    1      -36.800 ||    0.000441           0.010         0.430       0.215
    2       -2.184 ||    0.000002           0.000         0.002       0.001
    3        1.401 ||    0.000004           0.000         0.004       0.002
    4        8.509 ||    0.000000           0.000         0.000       0.000
    5       44.457 ||    0.010984           0.253        10.708       5.365
    6       44.775 ||    0.011195           0.258        10.914       5.468
    7      992.837 ||    0.176665           4.076       172.222      86.293
    8     1178.076 ||    0.001866           0.043         1.819       0.911
    9     1179.551 ||    0.001770           0.041         1.726       0.865
   10     1439.791 ||    0.014111           0.326        13.756       6.893
   11     1442.621 ||    0.010140           0.234         9.885       4.953
   12     1444.001 ||    0.005525           0.127         5.386       2.698
   13     3050.715 ||    0.031384           0.724        30.595      15.330
   14     3155.001 ||    0.021462           0.495        20.923      10.483
   15     3156.232 ||    0.021540           0.497        20.999      10.522
 ----------------------------------------------------------------------------





        Vibrational analysis via the FX method 
  --- with translations and rotations projected out ---
  --- via the Eckart algorithm                      ---
 Projected Nuclear Hessian trans-rot subspace norm:2.2928D-33
                         (should be close to zero!) 

          --------------------------------------------------------
          MASS-WEIGHTED PROJECTED HESSIAN (Hartree/Bohr/Bohr/Kamu)
          --------------------------------------------------------


               1            2            3            4            5            6            7            8            9           10
   ----- ----- ----- ----- -----
    1    4.99661D+01
    2   -4.69091D-01  3.41844D+01
    3    1.90476D-16  6.85657D-17  5.00412D+01
    4   -8.94219D+01 -1.91698D+01  3.64739D-16  3.20305D+02
    5   -1.60579D+01 -1.67864D+01  3.89615D-16  7.48088D+01  7.88686D+01
    6    9.87866D-16  1.44504D-16 -1.49411D+01 -1.73235D-15  5.48263D-16  4.34224D+01
    7   -3.27536D+01  1.10546D+01  3.13593D+01 -9.82186D+00  8.11188D+00  2.37114D+01  1.09212D+02
    8    9.49085D+00 -1.83832D+01 -1.65798D+01 -2.48781D+00  5.10349D+00  6.38036D+00 -4.15964D+01  8.57810D+01
    9    3.12528D+01 -1.93047D+01 -7.01040D+01 -1.52999D+00  1.01380D+00  2.68676D+00 -1.15899D+02  7.40580D+01  2.48107D+02
   10   -3.27536D+01  1.10546D+01 -3.13593D+01 -9.82186D+00  8.11188D+00 -2.37114D+01  8.82737D+00 -4.78533D+00  1.24102D+01  1.09212D+02
   11    9.49085D+00 -1.83832D+01  1.65798D+01 -2.48781D+00  5.10349D+00 -6.38036D+00 -4.78533D+00  5.52282D+00 -6.53676D+00 -4.15964D+01
   12   -3.12528D+01  1.93047D+01 -7.01040D+01  1.52999D+00 -1.01380D+00  2.68676D+00 -1.24102D+01  6.53676D+00 -1.63993D+01  1.15899D+02
   13   -4.02724D+00 -3.04225D-01 -2.91103D-17  1.81956D+00 -8.20469D+00  4.04522D-17  1.10626D+00  3.71282D+00 -6.50296D-01  1.10626D+00
   14   -3.00612D-01 -1.48338D+01 -6.54137D-17 -8.48828D-01 -7.17499D+00  3.01593D-17  2.86568D-02 -7.59453D+00 -4.42589D-01  2.86568D-02
   15    2.88607D-17 -1.05806D-16 -4.03622D+00 -1.26449D-16  7.75136D-17  6.35745D-01 -8.31892D-01 -6.85534D+00  1.72929D+00  8.31892D-01


              11           12           13           14           15
   ----- ----- ----- ----- -----
   11    8.57810D+01
   12   -7.40580D+01  2.48107D+02
   13    3.71282D+00  6.50296D-01  2.27199D+00
   14   -7.59453D+00  4.42589D-01  4.21215D-01  1.69401D+01
   15    6.85534D+00  1.72929D+00  2.42084D-17 -4.14372D-17  2.26479D+00

 center of mass
 --------------
 x =   0.04541550 y =  -0.54282247 z =   0.00000000

 moments of inertia (a.u.)
 ------------------
          72.017689795072          -1.766258361865           0.000000000000
          -1.766258361865          11.810105921126           0.000000000000
           0.000000000000           0.000000000000          72.066093529285

 Rotational Constants
 --------------------
 A=   5.119787 cm-1  (  7.366067 K)
 B=   0.835347 cm-1  (  1.201851 K)
 C=   0.835308 cm-1  (  1.201795 K)


 Temperature                      =   298.15K
 frequency scaling parameter      =   1.0000

 Zero-Point correction to Energy  =   24.346 kcal/mol  (  0.038798 au)
 Thermal correction to Energy     =   26.181 kcal/mol  (  0.041723 au)
 Thermal correction to Enthalpy   =   26.774 kcal/mol  (  0.042666 au)

 Total Entropy                    =   55.463 cal/mol-K
   - Translational                =   36.488 cal/mol-K (mol. weight =  34.0219)
   - Rotational                   =   18.744 cal/mol-K (symmetry #  =        1)
   - Vibrational                  =    0.232 cal/mol-K

 Cv (constant volume heat capacity) =    7.057 cal/mol-K
   - Translational                  =    2.979 cal/mol-K
   - Rotational                     =    2.979 cal/mol-K
   - Vibrational                    =    1.098 cal/mol-K



          -------------------------------------------------
          NORMAL MODE EIGENVECTORS IN CARTESIAN COORDINATES
          -------------------------------------------------
             (Projected Frequencies expressed in cm-1)

                    1           2           3           4           5           6
 
 P.Frequency       -0.00       -0.00       -0.00        0.00        0.00        0.00
 
           1     0.00109     0.00157     0.00030     0.01441     0.00117     0.23959
           2     0.00771    -0.00063     0.00103     0.00779    -0.17113    -0.00311
           3    -0.13936     0.19433     0.02009     0.00054    -0.00684    -0.00066
           4     0.00124     0.00194     0.00034    -0.03201     0.00011     0.29091
           5     0.00719    -0.00189     0.00089     0.16501    -0.16757    -0.17694
           6     0.29045     0.57646    -0.05337    -0.00030     0.01070    -0.00505
           7    -0.39876    -0.29303     0.02485    -0.03794    -0.01684     0.30215
           8     0.11328    -0.11172     0.13171    -0.06903    -0.16694     0.08139
           9    -0.40721     0.07145    -0.01754     0.00120    -0.01868     0.00142
          10     0.40128     0.29701    -0.02414    -0.03965     0.01677     0.29467
          11    -0.09737     0.11167    -0.12950    -0.06810    -0.17878     0.08122
          12    -0.40721     0.07145    -0.01754     0.00120    -0.01868     0.00142
          13     0.00039    -0.00012     0.00011     0.22429     0.00593     0.00754
          14     0.00773    -0.00058     0.00104     0.00164    -0.17127     0.00368
          15     0.00624     0.00719     0.22433    -0.00014     0.00161    -0.00036

                    7           8           9          10          11          12
 
 P.Frequency      992.81     1178.41     1179.55     1439.70     1442.21     1443.86
 
           1     0.00657    -0.11877    -0.00000     0.00000    -0.04774     0.02946
           2     0.21015     0.00422    -0.00000     0.00000    -0.04953    -0.07550
           3     0.00000    -0.00000     0.11884    -0.05600     0.00000     0.00000
           4     0.02598     0.07296     0.00000    -0.00000    -0.20886    -0.06464
           5     0.11355    -0.66556    -0.00000     0.00000     0.57353     0.23395
           6    -0.00000     0.00000    -0.27072     0.70646     0.00000    -0.00000
           7    -0.00880     0.23543    -0.06059     0.37758     0.46419    -0.18582
           8     0.11017     0.32617     0.57701     0.28294     0.13287     0.52289
           9     0.02008     0.07711    -0.13658     0.06699     0.21511    -0.33997
          10    -0.00880     0.23543     0.06059    -0.37758     0.46419    -0.18582
          11     0.11017     0.32617    -0.57701    -0.28294     0.13287     0.52289
          12    -0.02008    -0.07711    -0.13658     0.06699    -0.21511     0.33997
          13    -0.00460     0.04617     0.00000    -0.00000    -0.00802     0.00454
          14    -0.15045    -0.00197    -0.00000     0.00000    -0.01323    -0.02020
          15     0.00000     0.00000    -0.04621    -0.00921     0.00000     0.00000

                   13          14          15
 
 P.Frequency     3050.75     3155.08     3156.22
 
           1    -0.00177    -0.09176    -0.00000
           2    -0.03968     0.00288     0.00000
           3    -0.00000     0.00000    -0.09185
           4     0.55342     0.73926     0.00000
           5     0.15473     0.20515     0.00000
           6     0.00000     0.00000    -0.01446
           7    -0.26563     0.17172    -0.31927
           8     0.17602    -0.11952     0.20606
           9     0.46909    -0.32844     0.54899
          10    -0.26563     0.17172     0.31927
          11     0.17602    -0.11952    -0.20606
          12    -0.46909     0.32844     0.54899
          13    -0.00006     0.00053     0.00000
          14    -0.00182    -0.00002    -0.00000
          15     0.00000    -0.00000     0.00054



 ----------------------------------------------------------------------------
 Normal Eigenvalue ||    Projected Derivative Dipole Moments (debye/angs)
  Mode   [cm**-1]  ||      [d/dqX]             [d/dqY]           [d/dqZ]
 ------ ---------- || ------------------ ------------------ -----------------
    1       -0.000 ||       0.001              -0.000            -0.238
    2       -0.000 ||       0.003              -0.000             0.307
    3       -0.000 ||       0.000              -0.000            -0.335
    4        0.000 ||      -0.340               0.007             0.001
    5        0.000 ||      -0.008               0.000            -0.014
    6        0.000 ||       0.376              -0.008            -0.001
    7      992.813 ||       0.059               2.018            -0.000
    8     1178.410 ||      -0.211               0.018            -0.000
    9     1179.551 ||      -0.000               0.000             0.203
   10     1439.697 ||      -0.000               0.000             0.571
   11     1442.208 ||       0.513              -0.040             0.000
   12     1443.859 ||      -0.306              -0.047            -0.000
   13     3050.746 ||      -0.030              -0.850            -0.000
   14     3155.081 ||      -0.703               0.020             0.000
   15     3156.218 ||      -0.000               0.000            -0.705
 ----------------------------------------------------------------------------



  
  
 ----------------------------------------------------------------------------
 Normal Eigenvalue ||           Projected Infra Red Intensities
  Mode   [cm**-1]  || [atomic units] [(debye/angs)**2] [(KM/mol)] [arbitrary]
 ------ ---------- || -------------- ----------------- ---------- -----------
    1       -0.000 ||    0.002465           0.057         2.403       1.204
    2       -0.000 ||    0.004081           0.094         3.978       1.993
    3       -0.000 ||    0.004857           0.112         4.735       2.373
    4        0.000 ||    0.005019           0.116         4.893       2.452
    5        0.000 ||    0.000011           0.000         0.011       0.005
    6        0.000 ||    0.006135           0.142         5.980       2.996
    7      992.813 ||    0.176662           4.076       172.219      86.291
    8     1178.410 ||    0.001936           0.045         1.888       0.946
    9     1179.551 ||    0.001792           0.041         1.747       0.875
   10     1439.697 ||    0.014108           0.325        13.753       6.891
   11     1442.208 ||    0.011476           0.265        11.187       5.605
   12     1443.859 ||    0.004165           0.096         4.060       2.035
   13     3050.746 ||    0.031383           0.724        30.594      15.329
   14     3155.081 ||    0.021461           0.495        20.921      10.483
   15     3156.218 ||    0.021541           0.497        20.999      10.522
 ----------------------------------------------------------------------------



 vib:animation  F

 Task  times  cpu:     4487.3s     wall:     2085.5s
 Summary of allocated global arrays
-----------------------------------
  No active global arrays


MA_summarize_allocated_blocks: starting scan ...
MA_summarize_allocated_blocks: scan completed: 0 heap blocks, 0 stack blocks
MA usage statistics:

	allocation statistics:
					      heap	     stack
					      ----	     -----
	current number of blocks	         0	         0
	maximum number of blocks	        27	        57
	current total bytes		         0	         0
	maximum total bytes		  80833704	  32924104
	maximum total K-bytes		     80834	     32925
	maximum total M-bytes		        81	        33


                                NWChem Input Module
                                -------------------




                                     CITATION
                                     --------
                Please cite the following reference when publishing
                           results obtained with NWChem:

          E. Apra, E. J. Bylaska, W. A. de Jong, N. Govind, K. Kowalski,
       T. P. Straatsma, M. Valiev, H. J. J. van Dam, Y. Alexeev, J. Anchell,
       V. Anisimov, F. W. Aquino, R. Atta-Fynn, J. Autschbach, N. P. Bauman,
     J. C. Becca, D. E. Bernholdt, K. Bhaskaran-Nair, S. Bogatko, P. Borowski,
         J. Boschen, J. Brabec, A. Bruner, E. Cauet, Y. Chen, G. N. Chuev,
      C. J. Cramer, J. Daily, M. J. O. Deegan, T. H. Dunning Jr., M. Dupuis,
   K. G. Dyall, G. I. Fann, S. A. Fischer, A. Fonari, H. Fruchtl, L. Gagliardi,
      J. Garza, N. Gawande, S. Ghosh, K. Glaesemann, A. W. Gotz, J. Hammond,
       V. Helms, E. D. Hermes, K. Hirao, S. Hirata, M. Jacquelin, L. Jensen,
   B. G. Johnson, H. Jonsson, R. A. Kendall, M. Klemm, R. Kobayashi, V. Konkov,
      S. Krishnamoorthy, M. Krishnan, Z. Lin, R. D. Lins, R. J. Littlefield,
      A. J. Logsdail, K. Lopata, W. Ma, A. V. Marenich, J. Martin del Campo,
   D. Mejia-Rodriguez, J. E. Moore, J. M. Mullin, T. Nakajima, D. R. Nascimento,
    J. A. Nichols, P. J. Nichols, J. Nieplocha, A. Otero-de-la-Roza, B. Palmer,
    A. Panyala, T. Pirojsirikul, B. Peng, R. Peverati, J. Pittner, L. Pollack,
   R. M. Richard, P. Sadayappan, G. C. Schatz, W. A. Shelton, D. W. Silverstein,
   D. M. A. Smith, T. A. Soares, D. Song, M. Swart, H. L. Taylor, G. S. Thomas,
            V. Tipparaju, D. G. Truhlar, K. Tsemekhman, T. Van Voorhis,
      A. Vazquez-Mayagoitia, P. Verma, O. Villa, A. Vishnu, K. D. Vogiatzis,
        D. Wang, J. H. Weare, M. J. Williamson, T. L. Windus, K. Wolinski,
        A. T. Wong, Q. Wu, C. Yang, Q. Yu, M. Zacharias, Z. Zhang, Y. Zhao,
                                and R. J. Harrison
                        "NWChem: Past, present, and future
                         J. Chem. Phys. 152, 184102 (2020)
                               doi:10.1063/5.0004997

                                      AUTHORS
                                      -------
  E. Apra, E. J. Bylaska, N. Govind, K. Kowalski, M. Valiev, D. Mejia-Rodriguez,
       A. Kunitsa, N. P. Bauman, A. Panyala, W. A. de Jong, T. P. Straatsma,
   H. J. J. van Dam, D. Wang, T. L. Windus, J. Hammond, J. Autschbach, A. Woods,
    K. Bhaskaran-Nair, J. Brabec, K. Lopata, S. A. Fischer, S. Krishnamoorthy,
     M. Jacquelin, W. Ma, M. Klemm, O. Villa, Y. Chen, V. Anisimov, F. Aquino,
     S. Hirata, M. T. Hackler, E. Hermes, L. Jensen, J. E. Moore, J. C. Becca,
      V. Konjkov, T. Risthaus, M. Malagoli, A. Marenich, A. Otero-de-la-Roza,
        J. Mullin, P. Nichols, R. Peverati, J. Pittner, Y. Zhao, P.-D. Fan,
        A. Fonari, M. J. Williamson, R. J. Harrison, J. R. Rehr, M. Dupuis,
     D. Silverstein, D. M. A. Smith, J. Nieplocha, V. Tipparaju, M. Krishnan,
     B. E. Van Kuiken, A. Vazquez-Mayagoitia, M. Swart, Q. Wu, T. Van Voorhis,
     A. A. Auer, M. Nooijen, L. D. Crosby, E. Brown, G. Cisneros, G. I. Fann,
   H. Fruchtl, J. Garza, K. Hirao, R. A. Kendall, J. A. Nichols, K. Tsemekhman,
    K. Wolinski, J. Anchell, D. E. Bernholdt, P. Borowski, T. Clark, D. Clerc,
   H. Dachsel, M. J. O. Deegan, K. Dyall, D. Elwood, E. Glendening, M. Gutowski,
   A. C. Hess, J. Jaffe, B. G. Johnson, J. Ju, R. Kobayashi, R. Kutteh, Z. Lin,
   R. Littlefield, X. Long, B. Meng, T. Nakajima, S. Niu, L. Pollack, M. Rosing,
   K. Glaesemann, G. Sandrone, M. Stave, H. Taylor, G. Thomas, J. H. van Lenthe,
                               A. T. Wong, Z. Zhang.

 Total times  cpu:     4839.3s     wall:     2229.9s
