 argument  1 = /home/sebastian/СH3Cl+F=CH3F+Cl/inputs/acetone_env/F_opt_freq.nw



============================== echo of input deck ==============================
start F_opt_freq
title "F- acetone opt+freq"
memory total 1000 mb
echo

charge -1
geometry units angstrom
 F 0 0 0
end

basis
    * library def2-svpd
end

dft
  xc b3lyp
  mult 1
  grid xfine
  iterations 200
end

cosmo
 dielec 25.2
 lineq  0
end

task dft energy

#nwchem ~/СH3Cl+F=CH3F+Cl/inputs/acetone_env/F_opt_freq.nw > ~/СH3Cl+F=CH3F+Cl/outputs/acetone_env/F_opt_freq.out
#grep -i "Total DFT energy" "$HOME/СH3Cl+F=CH3F+Cl/outputs/acetone_env/F_opt_freq.out"
================================================================================


                                         
                                         


             Northwest Computational Chemistry Package (NWChem) 7.2.2
             --------------------------------------------------------


                    Environmental Molecular Sciences Laboratory
                       Pacific Northwest National Laboratory
                                Richland, WA 99352

                              Copyright (c) 1994-2022
                       Pacific Northwest National Laboratory
                            Battelle Memorial Institute

             NWChem is an open-source computational chemistry package
                        distributed under the terms of the
                      Educational Community License (ECL) 2.0
             A copy of the license is included with this distribution
                              in the LICENSE.TXT file

                                  ACKNOWLEDGMENT
                                  --------------

            This software and its documentation were developed at the
            EMSL at Pacific Northwest National Laboratory, a multiprogram
            national laboratory, operated for the U.S. Department of Energy
            by Battelle under Contract Number DE-AC05-76RL01830. Support
            for this work was provided by the Department of Energy Office
            of Biological and Environmental Research, Office of Basic
            Energy Sciences, and the Office of Advanced Scientific Computing.


           Job information
           ---------------

    hostname        = DESKTOP-B8GSJV0
    program         = nwchem
    date            = Fri Sep 12 14:52:33 2025

    compiled        = Mon_Apr_01_11:12:32_2024
    source          = /build/nwchem-qbYJLs/nwchem-7.2.2/build-openmpi
    nwchem branch   = 7.2.2
    nwchem revision = N/A
    ga revision     = N/A
    use scalapack   = T
    input           = /home/sebastian/СH3Cl+F=CH3F+Cl/inputs/acetone_env/F_opt_freq.nw
    prefix          = F_opt_freq.
    data base       = ./F_opt_freq.db
    status          = startup
    nproc           =        1
    time left       =     -1s



           Memory information
           ------------------

    heap     =   32767994 doubles =    250.0 Mbytes
    stack    =   32767999 doubles =    250.0 Mbytes
    global   =   65536000 doubles =    500.0 Mbytes (distinct from heap & stack)
    total    =  131071993 doubles =   1000.0 Mbytes
    verify   = yes
    hardfail = no 


           Directory information
           ---------------------

  0 permanent = .
  0 scratch   = .




                                NWChem Input Module
                                -------------------


                                F- acetone opt+freq
                                -------------------

 Scaling coordinates for geometry "geometry" by  1.889725989
 (inverse scale =  0.529177249)



                             Geometry "geometry" -> ""
                             -------------------------

 Output coordinates in angstroms (scale by  1.889725989 to convert to a.u.)

  No.       Tag          Charge          X              Y              Z
 ---- ---------------- ---------- -------------- -------------- --------------
    1 F                    9.0000     0.00000000     0.00000000     0.00000000

      Atomic Mass 
      ----------- 

      F                 18.998400


 Effective nuclear repulsion energy (a.u.)       0.0000000000

            Nuclear Dipole moment (a.u.) 
            ----------------------------
        X                 Y               Z
 ---------------- ---------------- ----------------
     0.0000000000     0.0000000000     0.0000000000


            XYZ format geometry
            -------------------
     1
 geometry
 F                     0.00000000     0.00000000     0.00000000



 Summary of "ao basis" -> "" (cartesian)
 ------------------------------------------------------------------------------
       Tag                 Description            Shells   Functions and Types
 ---------------- ------------------------------  ------  ---------------------
 *                         def2-svpd                  on all atoms 



                                 NWChem DFT Module
                                 -----------------


                                F- acetone opt+freq


                      Basis "ao basis" -> "ao basis" (cartesian)
                      -----
  F (Fluorine)
  ------------
            Exponent  Coefficients 
       -------------- ---------------------------------------------------------
  1 S  2.89483260E+03 -0.005341
  1 S  4.35419391E+02 -0.039904
  1 S  9.88433289E+01 -0.179128
  1 S  2.74851980E+01 -0.467581
  1 S  8.54054982E+00 -0.446531

  2 S  1.06545780E+00  1.000000

  3 S  3.32473467E-01  1.000000

  4 S  9.80977523E-02  1.000000

  5 P  2.26966339E+01 -0.045213
  5 P  4.98723393E+00 -0.237543
  5 P  1.34916140E+00 -0.512874

  6 P  3.48298820E-01  1.000000

  7 P  8.33721483E-02  1.000000

  8 D  1.40000000E+00  1.000000

  9 D  2.23013619E-01  1.000000



 Summary of "ao basis" -> "ao basis" (cartesian)
 ------------------------------------------------------------------------------
       Tag                 Description            Shells   Functions and Types
 ---------------- ------------------------------  ------  ---------------------
 F                         def2-svpd                 9       25   4s3p2d




 Summary of "ao basis" -> "ao basis" (cartesian)
 ------------------------------------------------------------------------------
       Tag                 Description            Shells   Functions and Types
 ---------------- ------------------------------  ------  ---------------------
 F                         def2-svpd                 9       25   4s3p2d


 in cosmo_initialize ...

 solvent parameters
 solvname_short: unkn    
 solvname_long:  unknown                            
 dielec:       25.2000

          ---------------
          -cosmo- solvent
          ---------------
 Cosmo: York-Karplus, doi: 10.1021/jp992097l
 dielectric constant -eps-     =  25.20
 screen = (eps-1)/(eps    )    =   0.96032
 surface charge correction     = lagrangian

 solvent accessible surface
 --------------------------

 ---------- ATOMIC COORDINATES (A.U.) ------------ VDWR(ANG.) --
     1    0.00000000    0.00000000    0.00000000     1.720
 number of segments per atom =         32
 number of   points per atom =         32
 atom (   nspa,  nppa )
 ----------------------
    1 (     32,     0 )       0
 number of -cosmo- surface points =       32
 molecular surface =     37.176 angstrom**2
 molecular volume  =     21.314 angstrom**3
 G(cav/disp)       =      1.046 kcal/mol
 -lineq- algorithm             =   0
 -bem- low  level              =   2
 -bem- from -octahedral-
 gaussian surface charge width =   4.50000
 degree of switching           =   1.00000
 switching function tolerance  =   0.00010
 atomic radii = 
 --------------
    1  9.000  1.720
 ...... end of -cosmo- initialization ......


  Caching 1-el integrals 

            General Information
            -------------------
          SCF calculation type: DFT
          Wavefunction type:  closed shell.
          No. of atoms     :     1
          No. of electrons :    10
           Alpha electrons :     5
            Beta electrons :     5
          Charge           :    -1
          Spin multiplicity:     1
          Use of symmetry is: off; symmetry adaption is: off
          Maximum number of iterations: 200
          AO basis - number of functions:    25
                     number of shells:     9
          Convergence on energy requested:  1.00D-06
          Convergence on density requested:  1.00D-05
          Convergence on gradient requested:  5.00D-04

              XC Information
              --------------
                         B3LYP Method XC Potential
                     Hartree-Fock (Exact) Exchange  0.200          
                        Slater Exchange Functional  0.800 local    
                    Becke 1988 Exchange Functional  0.720 non-local
              Lee-Yang-Parr Correlation Functional  0.810          
                  VWN I RPA Correlation Functional  0.190 local    

             Grid Information
             ----------------
          Grid used for XC integration:  xfine     
          Radial quadrature: Mura-Knowles        
          Angular quadrature: Lebedev. 
          Tag              B.-S. Rad. Rad. Pts. Rad. Cut. Ang. Pts.
          ---              ---------- --------- --------- ---------
          F                   0.50      100           6.0      1454
          Grid pruning is: on 
          Number of quadrature shells:   100
          Spatial weights used:  Erf1

          Convergence Information
          -----------------------
          Convergence aids based upon iterative change in 
          total energy or number of iterations. 
          Levelshifting, if invoked, occurs when the 
          HOMO/LUMO gap drops below (HL_TOL):  1.00D-02
          DIIS, if invoked, will attempt to extrapolate 
          using up to (NFOCK): 10 stored Fock matrices.

                    Damping( 0%)  Levelshifting(0.5)       DIIS
                  --------------- ------------------- ---------------
          dE  on:    start            ASAP                start   
          dE off:    2 iters        200 iters           200 iters 


      Screening Tolerance Information
      -------------------------------
          Density screening/tol_rho:  1.00D-10
          AO Gaussian exp screening on grid/accAOfunc:  14
          CD Gaussian exp screening on grid/accCDfunc:  20
          XC Gaussian exp screening on grid/accXCfunc:  20
          Schwarz screening/accCoul:  1.00D-08


      Superposition of Atomic Density Guess
      -------------------------------------

 Sum of atomic energies:         -99.29723354

 Renormalizing density from       9.00 to     10

      Non-variational initial energy
      ------------------------------

 Total energy =    -104.983832
 1-e energy   =    -154.471101
 2-e energy   =      49.487268
 HOMO         =       0.162071
 LUMO         =       0.407085

  WARNING: movecs_in_org=atomic not equal to movecs_in=./F_opt_freq.movecs
   Time after variat. SCF:      0.1
   Time prior to 1st pass:      0.1

 #quartets = 1.035D+03 #integrals = 1.047D+04 #direct =  0.0% #cached =100.0%


 Integral file          = ./F_opt_freq.aoints.0
 Record size in doubles =    65536    No. of integs per rec  =    43688
 Max. records in memory =        4    Max. records in file   =  1850211
 No. of bits per label  =        8    No. of bits per value  =       64


 Grid_pts file          = ./F_opt_freq.gridpts.0
 Record size in doubles =  12289        No. of grid_pts per rec  =   3070
 Max. records in memory =     54        Max. recs in file   =   9866996


           Memory utilization after 1st SCF pass: 
           Heap Space remaining (MW):       31.84            31840802
          Stack Space remaining (MW):       32.77            32767748

   convergence    iter        energy       DeltaE   RMS-Dens  Diis-err    time
 ---------------- ----- ----------------- --------- --------- ---------  ------
     COSMO gas phase
 d= 0,ls=0.0,diis     1    -99.3535363361 -9.94D+01  7.52D-02  5.98D+00     0.3
 d= 0,ls=0.0,diis     2    -98.9526174821  4.01D-01  4.64D-02  1.04D+01     0.4
 d= 0,ls=0.0,diis     3    -99.7881625866 -8.36D-01  3.01D-03  2.71D-03     0.6
 d= 0,ls=0.0,diis     4    -99.7883167624 -1.54D-04  9.84D-04  4.50D-03     0.7
 d= 0,ls=0.0,diis     5    -99.7886991586 -3.82D-04  4.98D-05  1.05D-05     0.8
 d= 0,ls=0.0,diis     6    -99.7887000311 -8.72D-07  8.60D-07  3.44D-09     1.0

           Memory utilization after 1st SCF pass: 
           Heap Space remaining (MW):       31.84            31840690
          Stack Space remaining (MW):       32.77            32767748

   convergence    iter        energy       DeltaE   RMS-Dens  Diis-err    time
 ---------------- ----- ----------------- --------- --------- ---------  ------
     COSMO solvation phase
 d= 0,ls=0.0,diis     1    -99.9243832329 -1.36D-01  4.71D-03  3.08D-03     1.1
 d= 0,ls=0.0,diis     2    -99.9246335284 -2.50D-04  1.21D-03  9.45D-03     1.2
 d= 0,ls=0.0,diis     3    -99.9254275421 -7.94D-04  3.15D-04  2.27D-04     1.3
 d= 0,ls=0.0,diis     4    -99.9254518346 -2.43D-05  1.26D-05  5.79D-07     1.4
 d= 0,ls=0.0,diis     5    -99.9254518848 -5.03D-08  1.60D-07  3.52D-11     1.5


         Total DFT energy =      -99.925451884830
      One electron energy =     -146.596682280071
           Coulomb energy =       54.516081520699
    Exchange-Corr. energy =      -10.650467424791
 Nuclear repulsion energy =        0.000000000000

             COSMO energy =        2.805616299334

 Numeric. integr. density =        9.999999995222

     Total iterative time =      1.4s


                                   COSMO solvation results
                                   -----------------------

                 gas phase energy =       -99.788700031088
                 sol phase energy =       -99.925451884830
 (electrostatic) solvation energy =         0.136751853742 (   85.81 kcal/mol)

                       DFT Final Molecular Orbital Analysis
                       ------------------------------------

 Vector    1  Occ=2.000000D+00  E=-2.455183D+01
              MO Center= -4.5D-19,  4.5D-19, -5.6D-19, r^2= 1.2D-02
   Bfn.  Coefficient  Atom+Function         Bfn.  Coefficient  Atom+Function  
  ----- ------------  ---------------      ----- ------------  ---------------
     1      0.985561  1 F  s                  2     -0.047023  1 F  s          

 Vector    2  Occ=2.000000D+00  E=-9.638758D-01
              MO Center= -3.0D-16, -2.7D-16,  1.6D-16, r^2= 3.8D-01
   Bfn.  Coefficient  Atom+Function         Bfn.  Coefficient  Atom+Function  
  ----- ------------  ---------------      ----- ------------  ---------------
     2      0.620832  1 F  s                  3      0.441843  1 F  s          
     1      0.310428  1 F  s                  4      0.029111  1 F  s          

 Vector    3  Occ=2.000000D+00  E=-2.760902D-01
              MO Center=  5.0D-17,  1.7D-16,  1.6D-16, r^2= 6.6D-01
   Bfn.  Coefficient  Atom+Function         Bfn.  Coefficient  Atom+Function  
  ----- ------------  ---------------      ----- ------------  ---------------
     6      0.586550  1 F  py                 9     -0.390493  1 F  py         
     5     -0.186364  1 F  px                12     -0.172487  1 F  py         
     7      0.160471  1 F  pz                 8      0.124071  1 F  px         
    10     -0.106833  1 F  pz                11      0.054804  1 F  px         
    13     -0.047190  1 F  pz         

 Vector    4  Occ=2.000000D+00  E=-2.760902D-01
              MO Center=  1.3D-17,  2.5D-16, -1.6D-16, r^2= 6.6D-01
   Bfn.  Coefficient  Atom+Function         Bfn.  Coefficient  Atom+Function  
  ----- ------------  ---------------      ----- ------------  ---------------
     7      0.604542  1 F  pz                10     -0.402471  1 F  pz         
     6     -0.186319  1 F  py                13     -0.177778  1 F  pz         
     9      0.124041  1 F  py                 5     -0.065859  1 F  px         
    12      0.054791  1 F  py                 8      0.043845  1 F  px         

 Vector    5  Occ=2.000000D+00  E=-2.760902D-01
              MO Center=  9.9D-17,  1.6D-16, -6.4D-17, r^2= 6.6D-01
   Bfn.  Coefficient  Atom+Function         Bfn.  Coefficient  Atom+Function  
  ----- ------------  ---------------      ----- ------------  ---------------
     5      0.604528  1 F  px                 8     -0.402462  1 F  px         
    11     -0.177773  1 F  px                 6      0.160524  1 F  py         
     7      0.115331  1 F  pz                 9     -0.106868  1 F  py         
    10     -0.076781  1 F  pz                12     -0.047205  1 F  py         
    13     -0.033915  1 F  pz         

 Vector    6  Occ=0.000000D+00  E= 6.034447D-02
              MO Center= -2.6D-15, -2.0D-16,  1.7D-15, r^2= 4.6D+00
   Bfn.  Coefficient  Atom+Function         Bfn.  Coefficient  Atom+Function  
  ----- ------------  ---------------      ----- ------------  ---------------
     4      3.206024  1 F  s                  3     -1.246252  1 F  s          
    20     -0.688670  1 F  dxx               23     -0.688670  1 F  dyy        
    25     -0.688670  1 F  dzz                2     -0.208424  1 F  s          
     1     -0.072616  1 F  s          

 Vector    7  Occ=0.000000D+00  E= 1.584941D-01
              MO Center=  4.3D-16,  8.1D-16,  3.4D-16, r^2= 4.5D+00
   Bfn.  Coefficient  Atom+Function         Bfn.  Coefficient  Atom+Function  
  ----- ------------  ---------------      ----- ------------  ---------------
    12      0.720758  1 F  py                13      0.622628  1 F  pz         
    11      0.561349  1 F  px                 9     -0.248781  1 F  py         
    10     -0.214910  1 F  pz                 8     -0.193759  1 F  px         
     6      0.173986  1 F  py                 7      0.150299  1 F  pz         
     5      0.135506  1 F  px         

 Vector    8  Occ=0.000000D+00  E= 1.584941D-01
              MO Center=  5.7D-16, -4.0D-16,  1.4D-17, r^2= 4.5D+00
   Bfn.  Coefficient  Atom+Function         Bfn.  Coefficient  Atom+Function  
  ----- ------------  ---------------      ----- ------------  ---------------
    12      0.834297  1 F  py                11     -0.560649  1 F  px         
    13     -0.460317  1 F  pz                 9     -0.287971  1 F  py         
     6      0.201394  1 F  py                 8      0.193517  1 F  px         
    10      0.158886  1 F  pz                 5     -0.135337  1 F  px         
     7     -0.111118  1 F  pz         

 Vector    9  Occ=0.000000D+00  E= 1.584941D-01
              MO Center=  1.1D-15,  3.4D-17, -1.6D-15, r^2= 4.5D+00
   Bfn.  Coefficient  Atom+Function         Bfn.  Coefficient  Atom+Function  
  ----- ------------  ---------------      ----- ------------  ---------------
    13     -0.789121  1 F  pz                11      0.769954  1 F  px         
    10      0.272378  1 F  pz                 8     -0.265762  1 F  px         
     7     -0.190489  1 F  pz                 5      0.185862  1 F  px         
    12      0.082019  1 F  py                 9     -0.028310  1 F  py         

 Vector   10  Occ=0.000000D+00  E= 5.843883D-01
              MO Center=  6.3D-17,  2.0D-15,  4.2D-16, r^2= 3.7D+00
   Bfn.  Coefficient  Atom+Function         Bfn.  Coefficient  Atom+Function  
  ----- ------------  ---------------      ----- ------------  ---------------
     4      4.290216  1 F  s                 20     -1.765759  1 F  dxx        
    23     -1.765759  1 F  dyy               25     -1.765759  1 F  dzz        
     3     -1.123650  1 F  s                  2      0.158805  1 F  s          
     1      0.143023  1 F  s                 14     -0.057943  1 F  dxx        
    17     -0.057943  1 F  dyy               19     -0.057943  1 F  dzz        

 Vector   11  Occ=0.000000D+00  E= 5.879049D-01
              MO Center= -1.8D-16, -2.5D-16, -5.2D-17, r^2= 2.2D+00
   Bfn.  Coefficient  Atom+Function         Bfn.  Coefficient  Atom+Function  
  ----- ------------  ---------------      ----- ------------  ---------------
    20      0.967522  1 F  dxx               23     -0.690859  1 F  dyy        
    25     -0.276663  1 F  dzz        

 Vector   12  Occ=0.000000D+00  E= 5.879049D-01
              MO Center= -5.0D-17, -2.2D-16,  7.0D-16, r^2= 2.2D+00
   Bfn.  Coefficient  Atom+Function         Bfn.  Coefficient  Atom+Function  
  ----- ------------  ---------------      ----- ------------  ---------------
    25      0.957467  1 F  dzz               23     -0.718331  1 F  dyy        
    20     -0.239136  1 F  dxx        

 Vector   13  Occ=0.000000D+00  E= 5.908205D-01
              MO Center= -3.9D-17, -6.2D-17, -2.2D-17, r^2= 2.2D+00
   Bfn.  Coefficient  Atom+Function         Bfn.  Coefficient  Atom+Function  
  ----- ------------  ---------------      ----- ------------  ---------------
    21      1.487324  1 F  dxy               22      0.698220  1 F  dxz        
    24      0.528912  1 F  dyz        

 Vector   14  Occ=0.000000D+00  E= 5.908205D-01
              MO Center=  4.9D-16, -6.6D-16, -1.3D-16, r^2= 2.2D+00
   Bfn.  Coefficient  Atom+Function         Bfn.  Coefficient  Atom+Function  
  ----- ------------  ---------------      ----- ------------  ---------------
    24      1.379943  1 F  dyz               22     -1.036887  1 F  dxz        

 Vector   15  Occ=0.000000D+00  E= 5.908205D-01
              MO Center=  8.5D-16,  8.9D-16, -3.6D-16, r^2= 2.2D+00
   Bfn.  Coefficient  Atom+Function         Bfn.  Coefficient  Atom+Function  
  ----- ------------  ---------------      ----- ------------  ---------------
    22      1.190272  1 F  dxz               24      0.891853  1 F  dyz        
    21     -0.875924  1 F  dxy        

 Vector   16  Occ=0.000000D+00  E= 1.436339D+00
              MO Center=  2.1D-15, -1.6D-15, -1.2D-15, r^2= 1.3D+00
   Bfn.  Coefficient  Atom+Function         Bfn.  Coefficient  Atom+Function  
  ----- ------------  ---------------      ----- ------------  ---------------
     8      0.972088  1 F  px                 9     -0.759640  1 F  py         
     5      0.722379  1 F  px                 6     -0.564504  1 F  py         
    11     -0.380487  1 F  px                10     -0.331777  1 F  pz         
    12      0.297332  1 F  py                 7     -0.246551  1 F  pz         
    13      0.129862  1 F  pz         

 Vector   17  Occ=0.000000D+00  E= 1.436339D+00
              MO Center= -2.0D-15, -3.2D-15,  4.9D-16, r^2= 1.3D+00
   Bfn.  Coefficient  Atom+Function         Bfn.  Coefficient  Atom+Function  
  ----- ------------  ---------------      ----- ------------  ---------------
     9      1.026993  1 F  py                 6      0.763180  1 F  py         
     8      0.725950  1 F  px                 5      0.539469  1 F  px         
    12     -0.401978  1 F  py                11     -0.284146  1 F  px         
    10     -0.224421  1 F  pz                 7     -0.166772  1 F  pz         
    13      0.087841  1 F  pz         

 Vector   18  Occ=0.000000D+00  E= 1.436339D+00
              MO Center= -1.1D-16, -2.0D-16, -9.8D-16, r^2= 1.3D+00
   Bfn.  Coefficient  Atom+Function         Bfn.  Coefficient  Atom+Function  
  ----- ------------  ---------------      ----- ------------  ---------------
    10      1.213113  1 F  pz                 7      0.901490  1 F  pz         
    13     -0.474827  1 F  pz                 8      0.400156  1 F  px         
     5      0.297365  1 F  px                11     -0.156626  1 F  px         

 Vector   19  Occ=0.000000D+00  E= 2.055307D+00
              MO Center= -4.3D-16,  1.0D-15, -1.6D-16, r^2= 1.8D+00
   Bfn.  Coefficient  Atom+Function         Bfn.  Coefficient  Atom+Function  
  ----- ------------  ---------------      ----- ------------  ---------------
     4      2.809603  1 F  s                  3      2.409256  1 F  s          
     2     -2.084189  1 F  s                 20     -1.589599  1 F  dxx        
    23     -1.589599  1 F  dyy               25     -1.589599  1 F  dzz        
    14     -0.303143  1 F  dxx               17     -0.303143  1 F  dyy        
    19     -0.303143  1 F  dzz                1     -0.228252  1 F  s          

 Vector   20  Occ=0.000000D+00  E= 3.437941D+00
              MO Center= -3.2D-16, -8.4D-19, -1.1D-16, r^2= 4.7D-01
   Bfn.  Coefficient  Atom+Function         Bfn.  Coefficient  Atom+Function  
  ----- ------------  ---------------      ----- ------------  ---------------
    14      0.902075  1 F  dxx               19     -0.897104  1 F  dzz        
    20     -0.254523  1 F  dxx               25      0.253121  1 F  dzz        

 Vector   21  Occ=0.000000D+00  E= 3.437941D+00
              MO Center= -8.9D-17, -5.9D-16,  1.7D-16, r^2= 4.7D-01
   Bfn.  Coefficient  Atom+Function         Bfn.  Coefficient  Atom+Function  
  ----- ------------  ---------------      ----- ------------  ---------------
    17      1.038757  1 F  dyy               19     -0.523683  1 F  dzz        
    14     -0.515074  1 F  dxx               23     -0.293088  1 F  dyy        
    25      0.147759  1 F  dzz               20      0.145330  1 F  dxx        

 Vector   22  Occ=0.000000D+00  E= 3.438266D+00
              MO Center= -1.3D-17,  3.3D-18,  2.9D-16, r^2= 4.7D-01
   Bfn.  Coefficient  Atom+Function         Bfn.  Coefficient  Atom+Function  
  ----- ------------  ---------------      ----- ------------  ---------------
    18      1.771870  1 F  dyz               24     -0.500389  1 F  dyz        
    16      0.293259  1 F  dxz               15     -0.107588  1 F  dxy        
    22     -0.082818  1 F  dxz               21      0.030384  1 F  dxy        

 Vector   23  Occ=0.000000D+00  E= 3.438266D+00
              MO Center= -1.0D-16,  1.7D-16, -1.1D-16, r^2= 4.7D-01
   Bfn.  Coefficient  Atom+Function         Bfn.  Coefficient  Atom+Function  
  ----- ------------  ---------------      ----- ------------  ---------------
    15      1.331291  1 F  dxy               16     -1.178413  1 F  dxz        
    21     -0.375966  1 F  dxy               22      0.332792  1 F  dxz        
    18      0.275873  1 F  dyz               24     -0.077908  1 F  dyz        

 Vector   24  Occ=0.000000D+00  E= 3.438266D+00
              MO Center= -1.2D-17,  6.0D-17,  8.5D-17, r^2= 4.7D-01
   Bfn.  Coefficient  Atom+Function         Bfn.  Coefficient  Atom+Function  
  ----- ------------  ---------------      ----- ------------  ---------------
    16      1.327570  1 F  dxz               15      1.205483  1 F  dxy        
    22     -0.374915  1 F  dxz               21     -0.340437  1 F  dxy        
    18     -0.146527  1 F  dyz               24      0.041380  1 F  dyz        

 Vector   25  Occ=0.000000D+00  E= 7.317858D+00
              MO Center= -4.6D-17,  8.2D-17,  1.6D-17, r^2= 5.9D-01
   Bfn.  Coefficient  Atom+Function         Bfn.  Coefficient  Atom+Function  
  ----- ------------  ---------------      ----- ------------  ---------------
     3      2.108152  1 F  s                 14     -1.580501  1 F  dxx        
    17     -1.580501  1 F  dyy               19     -1.580501  1 F  dzz        
     2      1.438297  1 F  s                  4      1.370192  1 F  s          
    20     -0.831957  1 F  dxx               23     -0.831957  1 F  dyy        
    25     -0.831957  1 F  dzz                1      0.693772  1 F  s          


 Parallel integral file used       1 records with       0 large values


 Task  times  cpu:        3.6s     wall:        1.5s
 Summary of allocated global arrays
-----------------------------------
  No active global arrays


MA_summarize_allocated_blocks: starting scan ...
MA_summarize_allocated_blocks: scan completed: 0 heap blocks, 0 stack blocks
MA usage statistics:

	allocation statistics:
					      heap	     stack
					      ----	     -----
	current number of blocks	         0	         0
	maximum number of blocks	        25	        53
	current total bytes		         0	         0
	maximum total bytes		   7418288	  22510616
	maximum total K-bytes		      7419	     22511
	maximum total M-bytes		         8	        23


                                NWChem Input Module
                                -------------------




                                     CITATION
                                     --------
                Please cite the following reference when publishing
                           results obtained with NWChem:

          E. Apra, E. J. Bylaska, W. A. de Jong, N. Govind, K. Kowalski,
       T. P. Straatsma, M. Valiev, H. J. J. van Dam, Y. Alexeev, J. Anchell,
       V. Anisimov, F. W. Aquino, R. Atta-Fynn, J. Autschbach, N. P. Bauman,
     J. C. Becca, D. E. Bernholdt, K. Bhaskaran-Nair, S. Bogatko, P. Borowski,
         J. Boschen, J. Brabec, A. Bruner, E. Cauet, Y. Chen, G. N. Chuev,
      C. J. Cramer, J. Daily, M. J. O. Deegan, T. H. Dunning Jr., M. Dupuis,
   K. G. Dyall, G. I. Fann, S. A. Fischer, A. Fonari, H. Fruchtl, L. Gagliardi,
      J. Garza, N. Gawande, S. Ghosh, K. Glaesemann, A. W. Gotz, J. Hammond,
       V. Helms, E. D. Hermes, K. Hirao, S. Hirata, M. Jacquelin, L. Jensen,
   B. G. Johnson, H. Jonsson, R. A. Kendall, M. Klemm, R. Kobayashi, V. Konkov,
      S. Krishnamoorthy, M. Krishnan, Z. Lin, R. D. Lins, R. J. Littlefield,
      A. J. Logsdail, K. Lopata, W. Ma, A. V. Marenich, J. Martin del Campo,
   D. Mejia-Rodriguez, J. E. Moore, J. M. Mullin, T. Nakajima, D. R. Nascimento,
    J. A. Nichols, P. J. Nichols, J. Nieplocha, A. Otero-de-la-Roza, B. Palmer,
    A. Panyala, T. Pirojsirikul, B. Peng, R. Peverati, J. Pittner, L. Pollack,
   R. M. Richard, P. Sadayappan, G. C. Schatz, W. A. Shelton, D. W. Silverstein,
   D. M. A. Smith, T. A. Soares, D. Song, M. Swart, H. L. Taylor, G. S. Thomas,
            V. Tipparaju, D. G. Truhlar, K. Tsemekhman, T. Van Voorhis,
      A. Vazquez-Mayagoitia, P. Verma, O. Villa, A. Vishnu, K. D. Vogiatzis,
        D. Wang, J. H. Weare, M. J. Williamson, T. L. Windus, K. Wolinski,
        A. T. Wong, Q. Wu, C. Yang, Q. Yu, M. Zacharias, Z. Zhang, Y. Zhao,
                                and R. J. Harrison
                        "NWChem: Past, present, and future
                         J. Chem. Phys. 152, 184102 (2020)
                               doi:10.1063/5.0004997

                                      AUTHORS
                                      -------
  E. Apra, E. J. Bylaska, N. Govind, K. Kowalski, M. Valiev, D. Mejia-Rodriguez,
       A. Kunitsa, N. P. Bauman, A. Panyala, W. A. de Jong, T. P. Straatsma,
   H. J. J. van Dam, D. Wang, T. L. Windus, J. Hammond, J. Autschbach, A. Woods,
    K. Bhaskaran-Nair, J. Brabec, K. Lopata, S. A. Fischer, S. Krishnamoorthy,
     M. Jacquelin, W. Ma, M. Klemm, O. Villa, Y. Chen, V. Anisimov, F. Aquino,
     S. Hirata, M. T. Hackler, E. Hermes, L. Jensen, J. E. Moore, J. C. Becca,
      V. Konjkov, T. Risthaus, M. Malagoli, A. Marenich, A. Otero-de-la-Roza,
        J. Mullin, P. Nichols, R. Peverati, J. Pittner, Y. Zhao, P.-D. Fan,
        A. Fonari, M. J. Williamson, R. J. Harrison, J. R. Rehr, M. Dupuis,
     D. Silverstein, D. M. A. Smith, J. Nieplocha, V. Tipparaju, M. Krishnan,
     B. E. Van Kuiken, A. Vazquez-Mayagoitia, M. Swart, Q. Wu, T. Van Voorhis,
     A. A. Auer, M. Nooijen, L. D. Crosby, E. Brown, G. Cisneros, G. I. Fann,
   H. Fruchtl, J. Garza, K. Hirao, R. A. Kendall, J. A. Nichols, K. Tsemekhman,
    K. Wolinski, J. Anchell, D. E. Bernholdt, P. Borowski, T. Clark, D. Clerc,
   H. Dachsel, M. J. O. Deegan, K. Dyall, D. Elwood, E. Glendening, M. Gutowski,
   A. C. Hess, J. Jaffe, B. G. Johnson, J. Ju, R. Kobayashi, R. Kutteh, Z. Lin,
   R. Littlefield, X. Long, B. Meng, T. Nakajima, S. Niu, L. Pollack, M. Rosing,
   K. Glaesemann, G. Sandrone, M. Stave, H. Taylor, G. Thomas, J. H. van Lenthe,
                               A. T. Wong, Z. Zhang.

 Total times  cpu:        3.6s     wall:        1.5s
