 argument  1 = /home/sebastian/СH3Cl+F=CH3F+Cl/inputs/water_env/CH3F_opt_freq.nw



============================== echo of input deck ==============================
start CH3F_opt_freq
title "CH3F water opt+freq"
memory total 2000 mb
echo

charge 0
geometry units angstrom
 C   0.000   0.000   0.000
 H   0.000   1.080   0.000
 H   1.020  -0.360   0.000
 H  -1.020  -0.360   0.000
 F  0.000   0.000   1.3
end

basis
    * library def2-svpd
end

dft
  xc b3lyp
  grid xfine
  iterations 200
end

cosmo
 dielec 78.4
 lineq  0
end

task dft optimize
task dft freq


#nwchem ~/СH3Cl+F=CH3F+Cl/inputs/water_env/CH3F_opt_freq.nw > ~/СH3Cl+F=CH3F+Cl/outputs/water_env/CH3F_opt_freq.out
#grep -i "Total DFT energy" "$HOME/СH3Cl+F=CH3F+Cl/outputs/water_env/CH3F_opt_freq.out"
================================================================================


                                         
                                         


             Northwest Computational Chemistry Package (NWChem) 7.2.2
             --------------------------------------------------------


                    Environmental Molecular Sciences Laboratory
                       Pacific Northwest National Laboratory
                                Richland, WA 99352

                              Copyright (c) 1994-2022
                       Pacific Northwest National Laboratory
                            Battelle Memorial Institute

             NWChem is an open-source computational chemistry package
                        distributed under the terms of the
                      Educational Community License (ECL) 2.0
             A copy of the license is included with this distribution
                              in the LICENSE.TXT file

                                  ACKNOWLEDGMENT
                                  --------------

            This software and its documentation were developed at the
            EMSL at Pacific Northwest National Laboratory, a multiprogram
            national laboratory, operated for the U.S. Department of Energy
            by Battelle under Contract Number DE-AC05-76RL01830. Support
            for this work was provided by the Department of Energy Office
            of Biological and Environmental Research, Office of Basic
            Energy Sciences, and the Office of Advanced Scientific Computing.


           Job information
           ---------------

    hostname        = DESKTOP-B8GSJV0
    program         = nwchem
    date            = Fri Sep 12 13:53:47 2025

    compiled        = Mon_Apr_01_11:12:32_2024
    source          = /build/nwchem-qbYJLs/nwchem-7.2.2/build-openmpi
    nwchem branch   = 7.2.2
    nwchem revision = N/A
    ga revision     = N/A
    use scalapack   = T
    input           = /home/sebastian/СH3Cl+F=CH3F+Cl/inputs/water_env/CH3F_opt_freq.nw
    prefix          = CH3F_opt_freq.
    data base       = ./CH3F_opt_freq.db
    status          = startup
    nproc           =        1
    time left       =     -1s



           Memory information
           ------------------

    heap     =   65535996 doubles =    500.0 Mbytes
    stack    =   65536001 doubles =    500.0 Mbytes
    global   =  131072000 doubles =   1000.0 Mbytes (distinct from heap & stack)
    total    =  262143997 doubles =   2000.0 Mbytes
    verify   = yes
    hardfail = no 


           Directory information
           ---------------------

  0 permanent = .
  0 scratch   = .




                                NWChem Input Module
                                -------------------


                                CH3F water opt+freq
                                -------------------

 Scaling coordinates for geometry "geometry" by  1.889725989
 (inverse scale =  0.529177249)

 CS  symmetry detected

          ------
          auto-z
          ------
  Looking for out-of-plane bends
  no constraints, skipping    0.0000000000000000     
  no constraints, skipping    0.0000000000000000     


                             Geometry "geometry" -> ""
                             -------------------------

 Output coordinates in angstroms (scale by  1.889725989 to convert to a.u.)

  No.       Tag          Charge          X              Y              Z
 ---- ---------------- ---------- -------------- -------------- --------------
    1 C                    6.0000    -0.03341969     0.64944832     0.00000000
    2 H                    1.0000     1.04634997     0.67175274     0.00000000
    3 H                    1.0000    -0.39334291     0.64201352     1.02000000
    4 H                    1.0000    -0.39334291     0.64201352    -1.02000000
    5 F                    9.0000    -0.00657178    -0.65027441     0.00000000

      Atomic Mass 
      ----------- 

      C                 12.000000
      H                  1.007825
      F                 18.998400


 Effective nuclear repulsion energy (a.u.)      40.1012486142

            Nuclear Dipole moment (a.u.) 
            ----------------------------
        X                 Y               Z
 ---------------- ---------------- ----------------
    -0.0000000000     0.0000000000     0.0000000000

      Symmetry information
      --------------------

 Group name             Cs        
 Group number              2
 Group order               2
 No. of unique centers     4

      Symmetry unique atoms

     1    2    3    5



                                Z-matrix (autoz)
                                -------- 

 Units are Angstrom for bonds and degrees for angles

      Type          Name      I     J     K     L     M      Value
      ----------- --------  ----- ----- ----- ----- ----- ----------
    1 Stretch                  1     2                       1.08000
    2 Stretch                  1     3                       1.08167
    3 Stretch                  1     4                       1.08167
    4 Stretch                  1     5                       1.30000
    5 Bend                     2     1     3               109.44003
    6 Bend                     2     1     4               109.44003
    7 Bend                     2     1     5                90.00000
    8 Bend                     3     1     4               141.11993
    9 Bend                     3     1     5                90.00000
   10 Bend                     4     1     5                90.00000


            XYZ format geometry
            -------------------
     5
 geometry
 C                    -0.03341969     0.64944832     0.00000000
 H                     1.04634997     0.67175274     0.00000000
 H                    -0.39334291     0.64201352     1.02000000
 H                    -0.39334291     0.64201352    -1.02000000
 F                    -0.00657178    -0.65027441     0.00000000

 ==============================================================================
                                internuclear distances
 ------------------------------------------------------------------------------
       center one      |      center two      | atomic units |  angstroms
 ------------------------------------------------------------------------------
    2 H                |   1 C                |     2.04090  |     1.08000
    3 H                |   1 C                |     2.04405  |     1.08167
    4 H                |   1 C                |     2.04405  |     1.08167
    5 F                |   1 C                |     2.45664  |     1.30000
 ------------------------------------------------------------------------------
                         number of included internuclear distances:          4
 ==============================================================================



 ==============================================================================
                                 internuclear angles
 ------------------------------------------------------------------------------
        center 1       |       center 2       |       center 3       |  degrees
 ------------------------------------------------------------------------------
    2 H                |   1 C                |   3 H                |   109.44
    2 H                |   1 C                |   4 H                |   109.44
    2 H                |   1 C                |   5 F                |    90.00
    3 H                |   1 C                |   4 H                |   141.12
    3 H                |   1 C                |   5 F                |    90.00
    4 H                |   1 C                |   5 F                |    90.00
 ------------------------------------------------------------------------------
                            number of included internuclear angles:          6
 ==============================================================================





 Summary of "ao basis" -> "" (cartesian)
 ------------------------------------------------------------------------------
       Tag                 Description            Shells   Functions and Types
 ---------------- ------------------------------  ------  ---------------------
 *                         def2-svpd                  on all atoms 




                           NWChem Geometry Optimization
                           ----------------------------




                                CH3F water opt+freq


  no constraints, skipping    0.0000000000000000     
 maximum gradient threshold         (gmax) =   0.000450
 rms gradient threshold             (grms) =   0.000300
 maximum cartesian step threshold   (xmax) =   0.001800
 rms cartesian step threshold       (xrms) =   0.001200
 fixed trust radius                (trust) =   0.300000
 maximum step size to saddle      (sadstp) =   0.100000
 energy precision                  (eprec) =   5.0D-06
 maximum number of steps          (nptopt) =   40
 initial hessian option           (inhess) =    0
 line search option               (linopt) =    1
 hessian update option            (modupd) =    1
 saddle point option              (modsad) =    0
 initial eigen-mode to follow     (moddir) =    0
 initial variable to follow       (vardir) =    0
 follow first negative mode     (firstneg) =    T
 apply conjugacy                    (opcg) =    F
 source of zmatrix                         =   autoz   


          -------------------
          Energy Minimization
          -------------------


 Names of Z-matrix variables 
    1              2              3              4              5         
    6              7              8              9             10         

 Variables with the same non-blank name are constrained to be equal


 Using old Hessian from previous optimization

          --------
          Step   0
          --------


                         Geometry "geometry" -> "geometry"
                         ---------------------------------

 Output coordinates in angstroms (scale by  1.889725989 to convert to a.u.)

  No.       Tag          Charge          X              Y              Z
 ---- ---------------- ---------- -------------- -------------- --------------
    1 C                    6.0000    -0.03341969     0.64944832     0.00000000
    2 H                    1.0000     1.04634997     0.67175274     0.00000000
    3 H                    1.0000    -0.39334291     0.64201352     1.02000000
    4 H                    1.0000    -0.39334291     0.64201352    -1.02000000
    5 F                    9.0000    -0.00657178    -0.65027441     0.00000000

      Atomic Mass 
      ----------- 

      C                 12.000000
      H                  1.007825
      F                 18.998400


 Effective nuclear repulsion energy (a.u.)      40.1012486142

            Nuclear Dipole moment (a.u.) 
            ----------------------------
        X                 Y               Z
 ---------------- ---------------- ----------------
    -0.0000000000     0.0000000000     0.0000000000

      Symmetry information
      --------------------

 Group name             Cs        
 Group number              2
 Group order               2
 No. of unique centers     4

      Symmetry unique atoms

     1    2    3    5


                                 NWChem DFT Module
                                 -----------------


                                CH3F water opt+freq


                      Basis "ao basis" -> "ao basis" (cartesian)
                      -----
  C (Carbon)
  ----------
            Exponent  Coefficients 
       -------------- ---------------------------------------------------------
  1 S  1.23840169E+03  0.005457
  1 S  1.86290050E+02  0.040638
  1 S  4.22511763E+01  0.180256
  1 S  1.16765579E+01  0.463151
  1 S  3.59305065E+00  0.440872

  2 S  4.02451474E-01  1.000000

  3 S  1.30901827E-01  1.000000

  4 S  6.70535403E-02  1.000000

  5 P  9.46809706E+00  0.038388
  5 P  2.01035451E+00  0.211170
  5 P  5.47710047E-01  0.513282

  6 P  1.52686138E-01  1.000000

  7 D  8.00000000E-01  1.000000

  8 D  1.17131851E-01  1.000000

  H (Hydrogen)
  ------------
            Exponent  Coefficients 
       -------------- ---------------------------------------------------------
  1 S  1.30107010E+01  0.019682
  1 S  1.96225720E+00  0.137965
  1 S  4.44537960E-01  0.478319

  2 S  1.21949620E-01  1.000000

  3 P  8.00000000E-01  1.000000

  4 P  1.17040991E-01  1.000000

  F (Fluorine)
  ------------
            Exponent  Coefficients 
       -------------- ---------------------------------------------------------
  1 S  2.89483260E+03 -0.005341
  1 S  4.35419391E+02 -0.039904
  1 S  9.88433289E+01 -0.179128
  1 S  2.74851980E+01 -0.467581
  1 S  8.54054982E+00 -0.446531

  2 S  1.06545780E+00  1.000000

  3 S  3.32473467E-01  1.000000

  4 S  9.80977523E-02  1.000000

  5 P  2.26966339E+01 -0.045213
  5 P  4.98723393E+00 -0.237543
  5 P  1.34916140E+00 -0.512874

  6 P  3.48298820E-01  1.000000

  7 P  8.33721483E-02  1.000000

  8 D  1.40000000E+00  1.000000

  9 D  2.23013619E-01  1.000000



 Summary of "ao basis" -> "ao basis" (cartesian)
 ------------------------------------------------------------------------------
       Tag                 Description            Shells   Functions and Types
 ---------------- ------------------------------  ------  ---------------------
 C                         def2-svpd                 8       22   4s2p2d
 H                         def2-svpd                 4        8   2s2p
 F                         def2-svpd                 9       25   4s3p2d




 Summary of "ao basis" -> "ao basis" (cartesian)
 ------------------------------------------------------------------------------
       Tag                 Description            Shells   Functions and Types
 ---------------- ------------------------------  ------  ---------------------
 C                         def2-svpd                 8       22   4s2p2d
 H                         def2-svpd                 4        8   2s2p
 F                         def2-svpd                 9       25   4s3p2d


      Symmetry analysis of basis
      --------------------------

        a'         48
        a"         23

 in cosmo_initialize ...

 solvent parameters
 solvname_short: unkn    
 solvname_long:  unknown                            
 dielec:       78.4000

          ---------------
          -cosmo- solvent
          ---------------
 Cosmo: York-Karplus, doi: 10.1021/jp992097l
 dielectric constant -eps-     =  78.40
 screen = (eps-1)/(eps    )    =   0.98724
 surface charge correction     = lagrangian

 solvent accessible surface
 --------------------------

 ---------- ATOMIC COORDINATES (A.U.) ------------ VDWR(ANG.) --
     1   -0.06315405    1.22727937    0.00000000     2.000
     2    1.97731473    1.26942860    0.00000000     1.300
     3   -0.74331031    1.21322963    1.92752051     1.300
     4   -0.74331031    1.21322963   -1.92752051     1.300
     5   -0.01241887   -1.22884046    0.00000000     1.720
 number of segments per atom =         32
 number of   points per atom =         32
 atom (   nspa,  nppa )
 ----------------------
    1 (     20,     0 )       0
    2 (     14,     0 )       0
    3 (     13,     0 )       0
    4 (     13,     0 )       0
    5 (     20,     0 )       0
 number of -cosmo- surface points =       80
 molecular surface =     60.487 angstrom**2
 molecular volume  =     34.524 angstrom**3
 G(cav/disp)       =      1.162 kcal/mol
 -lineq- algorithm             =   0
 -bem- low  level              =   2
 -bem- from -octahedral-
 gaussian surface charge width =   4.50000
 degree of switching           =   1.00000
 switching function tolerance  =   0.00010
 atomic radii = 
 --------------
    1  6.000  2.000
    2  1.000  1.300
    3  1.000  1.300
    4  1.000  1.300
    5  9.000  1.720
 ...... end of -cosmo- initialization ......


  Caching 1-el integrals 

            General Information
            -------------------
          SCF calculation type: DFT
          Wavefunction type:  closed shell.
          No. of atoms     :     5
          No. of electrons :    18
           Alpha electrons :     9
            Beta electrons :     9
          Charge           :     0
          Spin multiplicity:     1
          Use of symmetry is: on ; symmetry adaption is: on 
          Maximum number of iterations: 200
          AO basis - number of functions:    71
                     number of shells:    29
          Convergence on energy requested:  1.00D-06
          Convergence on density requested:  1.00D-05
          Convergence on gradient requested:  5.00D-04

              XC Information
              --------------
                         B3LYP Method XC Potential
                     Hartree-Fock (Exact) Exchange  0.200          
                        Slater Exchange Functional  0.800 local    
                    Becke 1988 Exchange Functional  0.720 non-local
              Lee-Yang-Parr Correlation Functional  0.810          
                  VWN I RPA Correlation Functional  0.190 local    

             Grid Information
             ----------------
          Grid used for XC integration:  xfine     
          Radial quadrature: Mura-Knowles        
          Angular quadrature: Lebedev. 
          Tag              B.-S. Rad. Rad. Pts. Rad. Cut. Ang. Pts.
          ---              ---------- --------- --------- ---------
          C                   0.70      100           8.0      1454
          H                   0.35      100           8.0      1202
          F                   0.50      100           8.0      1454
          Grid pruning is: on 
          Number of quadrature shells:   400
          Spatial weights used:  Erf1

          Convergence Information
          -----------------------
          Convergence aids based upon iterative change in 
          total energy or number of iterations. 
          Levelshifting, if invoked, occurs when the 
          HOMO/LUMO gap drops below (HL_TOL):  1.00D-02
          DIIS, if invoked, will attempt to extrapolate 
          using up to (NFOCK): 10 stored Fock matrices.

                    Damping( 0%)  Levelshifting(0.5)       DIIS
                  --------------- ------------------- ---------------
          dE  on:    start            ASAP                start   
          dE off:    2 iters        200 iters           200 iters 


      Screening Tolerance Information
      -------------------------------
          Density screening/tol_rho:  1.00D-10
          AO Gaussian exp screening on grid/accAOfunc:  14
          CD Gaussian exp screening on grid/accCDfunc:  20
          XC Gaussian exp screening on grid/accXCfunc:  20
          Schwarz screening/accCoul:  1.00D-08


      Superposition of Atomic Density Guess
      -------------------------------------

 Sum of atomic energies:        -138.42012618

      Non-variational initial energy
      ------------------------------

 Total energy =    -139.395211
 1-e energy   =    -269.765204
 2-e energy   =      90.268744
 HOMO         =      -0.391402
 LUMO         =       0.049333


      Symmetry analysis of molecular orbitals - initial
      -------------------------------------------------

  Numbering of irreducible representations: 

     1 a'          2 a"      

  Orbital symmetries:

     1 a'          2 a'          3 a'          4 a'          5 a"      
     6 a'          7 a'          8 a"          9 a'         10 a'      
    11 a'         12 a"         13 a'         14 a'         15 a'      
    16 a"         17 a"         18 a'         19 a'      

  WARNING: movecs_in_org=atomic not equal to movecs_in=./CH3F_opt_freq.movecs
   Time after variat. SCF:      0.3
   Time prior to 1st pass:      0.3

 Integral file          = ./CH3F_opt_freq.aoints.0
 Record size in doubles =    65536    No. of integs per rec  =    43688
 Max. records in memory =       69    Max. records in file   =  1850187
 No. of bits per label  =        8    No. of bits per value  =       64


 #quartets = 6.406D+04 #integrals = 1.826D+06 #direct =  0.0% #cached =100.0%


 Grid_pts file          = ./CH3F_opt_freq.gridpts.0
 Record size in doubles =  12289        No. of grid_pts per rec  =   3070
 Max. records in memory =    210        Max. recs in file   =   9866865

 Grid integrated density:      18.000000916801
 Requested integration accuracy:   0.10E-07

           Memory utilization after 1st SCF pass: 
           Heap Space remaining (MW):       58.43            58430460
          Stack Space remaining (MW):       65.54            65535468

   convergence    iter        energy       DeltaE   RMS-Dens  Diis-err    time
 ---------------- ----- ----------------- --------- --------- ---------  ------
     COSMO gas phase
 d= 0,ls=0.0,diis     1   -139.5303869769 -1.80D+02  3.53D-02  4.29D-01    12.1
 Grid integrated density:      18.000000905141
 Requested integration accuracy:   0.10E-07
 d= 0,ls=0.0,diis     2   -139.5195569057  1.08D-02  7.77D-03  6.31D-01    18.6
 d= 0,ls=0.0,diis     3   -139.5694514770 -4.99D-02  2.73D-03  1.73D-02    28.0
 d= 0,ls=0.0,diis     4   -139.5706017173 -1.15D-03  7.39D-04  1.30D-03    35.7
 d= 0,ls=0.0,diis     5   -139.5707269319 -1.25D-04  1.20D-04  4.60D-05    47.9
  Resetting Diis
 d= 0,ls=0.0,diis     6   -139.5707322590 -5.33D-06  2.14D-05  3.08D-07    56.9
 d= 0,ls=0.0,diis     7   -139.5707322937 -3.47D-08  4.23D-06  1.43D-08    65.4

           Memory utilization after 1st SCF pass: 
           Heap Space remaining (MW):       58.43            58430124
          Stack Space remaining (MW):       65.54            65535468

   convergence    iter        energy       DeltaE   RMS-Dens  Diis-err    time
 ---------------- ----- ----------------- --------- --------- ---------  ------
     COSMO solvation phase
 d= 0,ls=0.0,diis     1   -139.5741464367 -3.41D-03  2.91D-03  1.29D-03    72.7
 d= 0,ls=0.0,diis     2   -139.5744713056 -3.25D-04  4.70D-04  3.06D-04    79.8
 d= 0,ls=0.0,diis     3   -139.5744820183 -1.07D-05  2.18D-04  2.39D-04    84.2
 d= 0,ls=0.0,diis     4   -139.5744991134 -1.71D-05  2.28D-05  1.28D-06    89.6
 d= 0,ls=0.0,diis     5   -139.5744992387 -1.25D-07  1.08D-05  1.75D-07    97.8
 d= 0,ls=0.0,diis     6   -139.5744992552 -1.65D-08  2.93D-06  2.02D-08   105.9


         Total DFT energy =     -139.574499255203
      One electron energy =     -271.478622793521
           Coulomb energy =      108.787289851958
    Exchange-Corr. energy =      -17.030868433493
 Nuclear repulsion energy =       40.101248614193

             COSMO energy =        0.046453505660

 Numeric. integr. density =       17.999999998223

     Total iterative time =    105.6s


                                   COSMO solvation results
                                   -----------------------

                 gas phase energy =      -139.570732293733
                 sol phase energy =      -139.574499255203
 (electrostatic) solvation energy =         0.003766961470 (    2.36 kcal/mol)

                  Occupations of the irreducible representations
                  ----------------------------------------------

                     irrep           alpha         beta
                     --------     --------     --------
                     a'                7.0          7.0
                     a"                2.0          2.0


                       DFT Final Molecular Orbital Analysis
                       ------------------------------------

 Vector    1  Occ=2.000000D+00  E=-2.468670D+01  Symmetry=a'
              MO Center= -6.6D-03, -6.5D-01,  2.7D-18, r^2= 1.2D-02
   Bfn.  Coefficient  Atom+Function         Bfn.  Coefficient  Atom+Function  
  ----- ------------  ---------------      ----- ------------  ---------------
    47      0.985446  5 F  s                 48     -0.047705  5 F  s          

 Vector    2  Occ=2.000000D+00  E=-1.025134D+01  Symmetry=a'
              MO Center= -3.3D-02,  6.5D-01, -1.1D-17, r^2= 2.8D-02
   Bfn.  Coefficient  Atom+Function         Bfn.  Coefficient  Atom+Function  
  ----- ------------  ---------------      ----- ------------  ---------------
     1      0.987306  1 C  s                  2      0.064094  1 C  s          
     4     -0.034586  1 C  s                 50     -0.028551  5 F  s          

 Vector    3  Occ=2.000000D+00  E=-1.222308D+00  Symmetry=a'
              MO Center= -7.8D-03, -4.3D-01, -3.8D-16, r^2= 4.3D-01
   Bfn.  Coefficient  Atom+Function         Bfn.  Coefficient  Atom+Function  
  ----- ------------  ---------------      ----- ------------  ---------------
    48      0.564325  5 F  s                 49      0.400858  5 F  s          
    47      0.282482  5 F  s                  2      0.175080  1 C  s          
     3      0.147075  1 C  s                  6     -0.133239  1 C  py         
    52     -0.113169  5 F  py                32     -0.091897  3 H  s          
    40     -0.091897  4 H  s                  1     -0.090540  1 C  s          

 Vector    4  Occ=2.000000D+00  E=-6.915011D-01  Symmetry=a'
              MO Center=  3.4D-02,  1.0D-01,  4.1D-16, r^2= 1.3D+00
   Bfn.  Coefficient  Atom+Function         Bfn.  Coefficient  Atom+Function  
  ----- ------------  ---------------      ----- ------------  ---------------
     3      1.057144  1 C  s                 32     -0.466965  3 H  s          
    40     -0.466965  4 H  s                  2      0.458737  1 C  s          
    22      0.302439  1 C  dzz               52     -0.295677  5 F  py         
    48     -0.262644  5 F  s                  4     -0.216709  1 C  s          
     1     -0.213981  1 C  s                 49     -0.185588  5 F  s          

 Vector    5  Occ=2.000000D+00  E=-5.467474D-01  Symmetry=a"
              MO Center= -1.1D-01,  1.1D-01, -5.6D-16, r^2= 1.2D+00
   Bfn.  Coefficient  Atom+Function         Bfn.  Coefficient  Atom+Function  
  ----- ------------  ---------------      ----- ------------  ---------------
    53     -0.392528  5 F  pz                 7      0.366051  1 C  pz         
    56      0.256470  5 F  pz                32      0.248233  3 H  s          
    40     -0.248233  4 H  s                 31      0.240546  3 H  s          
    39     -0.240546  4 H  s                 19      0.195380  1 C  dxz        
    38     -0.063320  3 H  pz                46     -0.063320  4 H  pz         

 Vector    6  Occ=2.000000D+00  E=-5.170402D-01  Symmetry=a'
              MO Center=  1.4D-01, -5.5D-02,  1.7D-15, r^2= 1.1D+00
   Bfn.  Coefficient  Atom+Function         Bfn.  Coefficient  Atom+Function  
  ----- ------------  ---------------      ----- ------------  ---------------
    51      0.453296  5 F  px                 3     -0.353691  1 C  s          
     5     -0.328985  1 C  px                54     -0.293285  5 F  px         
    32      0.256458  3 H  s                 40      0.256458  4 H  s          
    23     -0.246653  2 H  s                 22     -0.155882  1 C  dzz        
    31      0.086510  3 H  s                 39      0.086510  4 H  s          

 Vector    7  Occ=2.000000D+00  E=-4.694218D-01  Symmetry=a'
              MO Center= -6.5D-02,  9.2D-02, -3.2D-16, r^2= 1.4D+00
   Bfn.  Coefficient  Atom+Function         Bfn.  Coefficient  Atom+Function  
  ----- ------------  ---------------      ----- ------------  ---------------
     3      0.656218  1 C  s                 52      0.484493  5 F  py         
     6      0.351785  1 C  py                55     -0.266834  5 F  py         
    32     -0.236344  3 H  s                 40     -0.236344  4 H  s          
     2      0.171457  1 C  s                 31      0.149876  3 H  s          
    39      0.149876  4 H  s                 50      0.139527  5 F  s          

 Vector    8  Occ=2.000000D+00  E=-3.402616D-01  Symmetry=a"
              MO Center= -1.0D-01, -6.8D-02,  5.3D-15, r^2= 1.3D+00
   Bfn.  Coefficient  Atom+Function         Bfn.  Coefficient  Atom+Function  
  ----- ------------  ---------------      ----- ------------  ---------------
    53      0.548769  5 F  pz                56     -0.369990  5 F  pz         
     7      0.302642  1 C  pz                31      0.251265  3 H  s          
    39     -0.251265  4 H  s                 32      0.191449  3 H  s          
    40     -0.191449  4 H  s                 19      0.091913  1 C  dxz        
    59     -0.086457  5 F  pz                21      0.073779  1 C  dyz        

 Vector    9  Occ=2.000000D+00  E=-3.169756D-01  Symmetry=a'
              MO Center=  1.4D-01,  1.1D-01, -5.1D-15, r^2= 1.4D+00
   Bfn.  Coefficient  Atom+Function         Bfn.  Coefficient  Atom+Function  
  ----- ------------  ---------------      ----- ------------  ---------------
    51      0.492931  5 F  px                 5      0.346697  1 C  px         
    54     -0.335091  5 F  px                23      0.326032  2 H  s          
     3      0.250117  1 C  s                 32     -0.230280  3 H  s          
    40     -0.230280  4 H  s                 31     -0.155046  3 H  s          
    39     -0.155046  4 H  s                 22      0.122064  1 C  dzz        

 Vector   10  Occ=0.000000D+00  E= 1.301975D-02  Symmetry=a'
              MO Center=  1.5D-02,  1.3D-01,  2.5D-16, r^2= 5.5D+00
   Bfn.  Coefficient  Atom+Function         Bfn.  Coefficient  Atom+Function  
  ----- ------------  ---------------      ----- ------------  ---------------
     4      3.276473  1 C  s                 50     -0.663500  5 F  s          
    20     -0.635862  1 C  dyy               58     -0.515571  5 F  py         
     3     -0.505525  1 C  s                 17     -0.375787  1 C  dxx        
     2     -0.309904  1 C  s                  6     -0.252844  1 C  py         
    22     -0.246056  1 C  dzz               32     -0.219768  3 H  s          

 Vector   11  Occ=0.000000D+00  E= 5.232048D-02  Symmetry=a'
              MO Center= -3.5D-02,  1.7D+00,  2.8D-15, r^2= 5.3D+00
   Bfn.  Coefficient  Atom+Function         Bfn.  Coefficient  Atom+Function  
  ----- ------------  ---------------      ----- ------------  ---------------
     3     11.797431  1 C  s                  4     -7.051377  1 C  s          
    32     -3.852041  3 H  s                 40     -3.852041  4 H  s          
    22      2.691893  1 C  dzz               24     -2.303413  2 H  s          
    50      2.268779  5 F  s                 17      1.806430  1 C  dxx        
    20      1.345435  1 C  dyy               38      1.008490  3 H  pz         

 Vector   12  Occ=0.000000D+00  E= 9.199868D-02  Symmetry=a"
              MO Center= -3.3D-01, -1.5D-02,  2.8D-13, r^2= 6.7D+00
   Bfn.  Coefficient  Atom+Function         Bfn.  Coefficient  Atom+Function  
  ----- ------------  ---------------      ----- ------------  ---------------
    32      1.953035  3 H  s                 40     -1.953035  4 H  s          
    59     -1.099484  5 F  pz                38     -1.080523  3 H  pz         
    46     -1.080523  4 H  pz                19      0.737853  1 C  dxz        
    10     -0.558441  1 C  pz                30     -0.472875  2 H  pz         
    21     -0.443243  1 C  dyz                7      0.288923  1 C  pz         

 Vector   13  Occ=0.000000D+00  E= 9.460347D-02  Symmetry=a'
              MO Center=  7.4D-01,  3.0D-03, -2.5D-13, r^2= 5.7D+00
   Bfn.  Coefficient  Atom+Function         Bfn.  Coefficient  Atom+Function  
  ----- ------------  ---------------      ----- ------------  ---------------
    24      1.919966  2 H  s                 28     -1.231707  2 H  px         
     3     -1.155505  1 C  s                 57     -0.889164  5 F  px         
    32     -0.809934  3 H  s                 40     -0.809934  4 H  s          
    58      0.618317  5 F  py                38      0.523375  3 H  pz         
    46     -0.523375  4 H  pz                18     -0.431082  1 C  dxy        

 Vector   14  Occ=0.000000D+00  E= 1.057561D-01  Symmetry=a'
              MO Center= -3.3D-01, -1.1D+00, -1.3D-15, r^2= 6.1D+00
   Bfn.  Coefficient  Atom+Function         Bfn.  Coefficient  Atom+Function  
  ----- ------------  ---------------      ----- ------------  ---------------
    50      3.234749  5 F  s                  3      2.688528  1 C  s          
     4     -2.346915  1 C  s                 58      2.163494  5 F  py         
    24     -2.037079  2 H  s                 32     -1.088061  3 H  s          
    40     -1.088061  4 H  s                 28      0.926218  2 H  px         
    57      0.579004  5 F  px                29      0.546683  2 H  py         

 Vector   15  Occ=0.000000D+00  E= 1.334411D-01  Symmetry=a'
              MO Center= -3.4D-01,  1.5D-02, -1.7D-14, r^2= 5.6D+00
   Bfn.  Coefficient  Atom+Function         Bfn.  Coefficient  Atom+Function  
  ----- ------------  ---------------      ----- ------------  ---------------
    50      2.206236  5 F  s                 32     -1.705040  3 H  s          
    40     -1.705040  4 H  s                 58      1.393574  5 F  py         
     3      1.133434  1 C  s                 22      0.697043  1 C  dzz        
     4     -0.680447  1 C  s                 57     -0.660081  5 F  px         
    36     -0.581563  3 H  px                44     -0.581563  4 H  px         

 Vector   16  Occ=0.000000D+00  E= 1.486025D-01  Symmetry=a"
              MO Center=  3.7D-01,  5.8D-01,  1.4D-14, r^2= 5.2D+00
   Bfn.  Coefficient  Atom+Function         Bfn.  Coefficient  Atom+Function  
  ----- ------------  ---------------      ----- ------------  ---------------
    19      2.480726  1 C  dxz               32      1.720494  3 H  s          
    40     -1.720494  4 H  s                 30     -1.537518  2 H  pz         
    36     -1.064464  3 H  px                44      1.064464  4 H  px         
    38     -0.341336  3 H  pz                46     -0.341336  4 H  pz         
    59     -0.278037  5 F  pz                21     -0.240922  1 C  dyz        

 Vector   17  Occ=0.000000D+00  E= 2.049350D-01  Symmetry=a"
              MO Center= -2.4D-01,  1.3D-01, -1.4D-14, r^2= 6.4D+00
   Bfn.  Coefficient  Atom+Function         Bfn.  Coefficient  Atom+Function  
  ----- ------------  ---------------      ----- ------------  ---------------
    32      1.222847  3 H  s                 40     -1.222847  4 H  s          
    59     -1.174700  5 F  pz                21     -0.824613  1 C  dyz        
    10     -0.707249  1 C  pz                37      0.694432  3 H  py         
    45     -0.694432  4 H  py                30      0.437163  2 H  pz         
    56      0.246050  5 F  pz                53     -0.187444  5 F  pz         

 Vector   18  Occ=0.000000D+00  E= 2.122040D-01  Symmetry=a'
              MO Center=  2.7D-01,  1.7D-01, -3.2D-15, r^2= 6.3D+00
   Bfn.  Coefficient  Atom+Function         Bfn.  Coefficient  Atom+Function  
  ----- ------------  ---------------      ----- ------------  ---------------
    24      1.919914  2 H  s                 57     -1.196470  5 F  px         
     8     -0.775817  1 C  px                 4     -0.696938  1 C  s          
    29      0.690116  2 H  py                32     -0.654591  3 H  s          
    40     -0.654591  4 H  s                 50      0.650085  5 F  s          
    17     -0.515519  1 C  dxx               18     -0.396410  1 C  dxy        

 Vector   19  Occ=0.000000D+00  E= 2.557271D-01  Symmetry=a'
              MO Center= -1.6D-01,  3.8D-01, -4.8D-13, r^2= 5.3D+00
   Bfn.  Coefficient  Atom+Function         Bfn.  Coefficient  Atom+Function  
  ----- ------------  ---------------      ----- ------------  ---------------
     3     21.329477  1 C  s                 32    -10.004005  3 H  s          
    40    -10.004005  4 H  s                 50      7.297477  5 F  s          
     4     -5.926729  1 C  s                 24     -5.346286  2 H  s          
    22      3.908058  1 C  dzz               38      2.686334  3 H  pz         
    46     -2.686334  4 H  pz                58      2.010548  5 F  py         

 Vector   20  Occ=0.000000D+00  E= 2.635437D-01  Symmetry=a'
              MO Center= -8.8D-02,  3.5D-01, -2.7D-14, r^2= 8.5D+00
   Bfn.  Coefficient  Atom+Function         Bfn.  Coefficient  Atom+Function  
  ----- ------------  ---------------      ----- ------------  ---------------
     3     38.460211  1 C  s                 32    -13.911488  3 H  s          
    40    -13.911488  4 H  s                  4    -10.680513  1 C  s          
    22      7.896401  1 C  dzz               24     -7.178965  2 H  s          
    17      4.292417  1 C  dxx               38      3.704851  3 H  pz         
    46     -3.704851  4 H  pz                50     -3.636122  5 F  s          

 Vector   21  Occ=0.000000D+00  E= 2.973991D-01  Symmetry=a"
              MO Center= -2.7D-01,  3.2D-01,  1.6D-13, r^2= 6.6D+00
   Bfn.  Coefficient  Atom+Function         Bfn.  Coefficient  Atom+Function  
  ----- ------------  ---------------      ----- ------------  ---------------
    19      2.336395  1 C  dxz               59      1.783155  5 F  pz         
    37      1.376240  3 H  py                45     -1.376240  4 H  py         
    32      1.326097  3 H  s                 40     -1.326097  4 H  s          
    30     -1.216300  2 H  pz                38     -1.201816  3 H  pz         
    46     -1.201816  4 H  pz                36     -0.687714  3 H  px         

 Vector   22  Occ=0.000000D+00  E= 3.104970D-01  Symmetry=a'
              MO Center= -1.1D-01,  9.4D-01, -2.0D-14, r^2= 6.9D+00
   Bfn.  Coefficient  Atom+Function         Bfn.  Coefficient  Atom+Function  
  ----- ------------  ---------------      ----- ------------  ---------------
     3      8.239873  1 C  s                  4      7.803946  1 C  s          
    50     -6.790691  5 F  s                 32     -5.145086  3 H  s          
    40     -5.145086  4 H  s                 24     -2.867121  2 H  s          
    49      2.692379  5 F  s                 20     -2.190590  1 C  dyy        
    58     -1.591371  5 F  py                66      1.281886  5 F  dxx        

 Vector   23  Occ=0.000000D+00  E= 3.160785D-01  Symmetry=a'
              MO Center=  3.8D-01,  3.8D-01, -2.4D-14, r^2= 6.2D+00
   Bfn.  Coefficient  Atom+Function         Bfn.  Coefficient  Atom+Function  
  ----- ------------  ---------------      ----- ------------  ---------------
     3      2.426476  1 C  s                 29      1.778249  2 H  py         
    50      1.681456  5 F  s                 57      1.608950  5 F  px         
    32     -1.536816  3 H  s                 40     -1.536816  4 H  s          
     4     -1.481658  1 C  s                 22      1.088713  1 C  dzz        
    36     -1.056743  3 H  px                44     -1.056743  4 H  px         

 Vector   24  Occ=0.000000D+00  E= 3.437651D-01  Symmetry=a"
              MO Center=  1.1D-01,  6.3D-01,  2.4D-14, r^2= 6.1D+00
   Bfn.  Coefficient  Atom+Function         Bfn.  Coefficient  Atom+Function  
  ----- ------------  ---------------      ----- ------------  ---------------
    32      1.824588  3 H  s                 40     -1.824588  4 H  s          
    30      1.293554  2 H  pz                36     -1.228579  3 H  px         
    44      1.228579  4 H  px                19      1.210153  1 C  dxz        
    10     -1.192586  1 C  pz                38     -1.099736  3 H  pz         
    46     -1.099736  4 H  pz                37     -0.558302  3 H  py         

 Vector   25  Occ=0.000000D+00  E= 3.440125D-01  Symmetry=a'
              MO Center=  7.9D-01,  7.8D-01, -4.2D-15, r^2= 5.2D+00
   Bfn.  Coefficient  Atom+Function         Bfn.  Coefficient  Atom+Function  
  ----- ------------  ---------------      ----- ------------  ---------------
    24      6.349748  2 H  s                  8     -3.410490  1 C  px         
    28     -3.423896  2 H  px                32     -2.225644  3 H  s          
    40     -2.225644  4 H  s                 38      1.725954  3 H  pz         
    46     -1.725954  4 H  pz                50      1.447158  5 F  s          
     4     -1.264617  1 C  s                  3     -1.156919  1 C  s          

 Vector   26  Occ=0.000000D+00  E= 3.786189D-01  Symmetry=a'
              MO Center= -3.9D-01,  7.2D-01, -6.5D-13, r^2= 5.8D+00
   Bfn.  Coefficient  Atom+Function         Bfn.  Coefficient  Atom+Function  
  ----- ------------  ---------------      ----- ------------  ---------------
    50      6.928613  5 F  s                 24      4.326690  2 H  s          
    17     -3.595223  1 C  dxx               49     -2.829919  5 F  s          
     3     -2.463740  1 C  s                 58      2.310957  5 F  py         
     9     -1.464450  1 C  py                36     -1.372129  3 H  px         
    44     -1.372129  4 H  px                18      1.360582  1 C  dxy        

 Vector   27  Occ=0.000000D+00  E= 3.851913D-01  Symmetry=a"
              MO Center= -6.7D-01,  7.6D-01,  8.2D-13, r^2= 5.7D+00
   Bfn.  Coefficient  Atom+Function         Bfn.  Coefficient  Atom+Function  
  ----- ------------  ---------------      ----- ------------  ---------------
    32      6.225509  3 H  s                 40     -6.225509  4 H  s          
    10     -4.377527  1 C  pz                38     -2.731202  3 H  pz         
    46     -2.731202  4 H  pz                36      2.021978  3 H  px         
    44     -2.021978  4 H  px                19     -2.004121  1 C  dxz        
    21      1.274779  1 C  dyz               37     -0.844767  3 H  py         

 Vector   28  Occ=0.000000D+00  E= 3.881288D-01  Symmetry=a'
              MO Center= -3.9D-01,  6.4D-01,  1.1D-14, r^2= 5.1D+00
   Bfn.  Coefficient  Atom+Function         Bfn.  Coefficient  Atom+Function  
  ----- ------------  ---------------      ----- ------------  ---------------
    24      4.700281  2 H  s                 18     -3.320659  1 C  dxy        
    50     -3.163573  5 F  s                  3     -2.700988  1 C  s          
    17     -1.401705  1 C  dxx               37     -1.295985  3 H  py         
    45     -1.295985  4 H  py                22     -1.251273  1 C  dzz        
     4      1.203996  1 C  s                 29      1.063093  2 H  py         

 Vector   29  Occ=0.000000D+00  E= 4.253177D-01  Symmetry=a'
              MO Center=  2.6D-01, -1.5D-02, -7.5D-17, r^2= 7.4D+00
   Bfn.  Coefficient  Atom+Function         Bfn.  Coefficient  Atom+Function  
  ----- ------------  ---------------      ----- ------------  ---------------
    50     17.083562  5 F  s                  3     12.411017  1 C  s          
    24     -9.278482  2 H  s                  4     -6.495646  1 C  s          
    32     -4.777479  3 H  s                 40     -4.777479  4 H  s          
    58      4.769568  5 F  py                49     -3.949031  5 F  s          
    29      3.519038  2 H  py                28      2.898812  2 H  px         

 Vector   30  Occ=0.000000D+00  E= 4.262125D-01  Symmetry=a"
              MO Center=  2.1D-01,  7.2D-01, -2.1D-14, r^2= 5.3D+00
   Bfn.  Coefficient  Atom+Function         Bfn.  Coefficient  Atom+Function  
  ----- ------------  ---------------      ----- ------------  ---------------
    21      5.838307  1 C  dyz               19      3.876375  1 C  dxz        
    37     -2.694173  3 H  py                45      2.694173  4 H  py         
    32      1.769952  3 H  s                 40     -1.769952  4 H  s          
    30     -1.631598  2 H  pz                36     -0.920608  3 H  px         
    44      0.920608  4 H  px                56      0.350330  5 F  pz         

 Vector   31  Occ=0.000000D+00  E= 4.594665D-01  Symmetry=a"
              MO Center=  7.8D-01,  4.1D-01,  8.6D-14, r^2= 5.3D+00
   Bfn.  Coefficient  Atom+Function         Bfn.  Coefficient  Atom+Function  
  ----- ------------  ---------------      ----- ------------  ---------------
    19     11.255868  1 C  dxz               32     10.379505  3 H  s          
    40    -10.379505  4 H  s                 30     -4.685886  2 H  pz         
    38     -3.167298  3 H  pz                46     -3.167298  4 H  pz         
    10     -3.146414  1 C  pz                36     -1.922126  3 H  px         
    44      1.922126  4 H  px                21     -1.793248  1 C  dyz        

 Vector   32  Occ=0.000000D+00  E= 4.775808D-01  Symmetry=a'
              MO Center= -1.6D-01,  5.6D-01,  7.2D-15, r^2= 6.3D+00
   Bfn.  Coefficient  Atom+Function         Bfn.  Coefficient  Atom+Function  
  ----- ------------  ---------------      ----- ------------  ---------------
    24     12.476573  2 H  s                  3     -7.997194  1 C  s          
    32     -6.785586  3 H  s                 40     -6.785586  4 H  s          
    50      4.459138  5 F  s                 22      4.305771  1 C  dzz        
    17     -4.075065  1 C  dxx               28     -3.963469  2 H  px         
     4      3.772959  1 C  s                  8     -2.802061  1 C  px         

 Vector   33  Occ=0.000000D+00  E= 5.231849D-01  Symmetry=a'
              MO Center=  1.5D-01,  7.9D-01,  2.3D-13, r^2= 5.3D+00
   Bfn.  Coefficient  Atom+Function         Bfn.  Coefficient  Atom+Function  
  ----- ------------  ---------------      ----- ------------  ---------------
     3     70.574039  1 C  s                 32    -34.638135  3 H  s          
    40    -34.638135  4 H  s                 22     18.924941  1 C  dzz        
    24    -13.102552  2 H  s                  4    -10.983557  1 C  s          
    17      6.860727  1 C  dxx               20      5.890525  1 C  dyy        
    38      5.919739  3 H  pz                46     -5.919739  4 H  pz         

 Vector   34  Occ=0.000000D+00  E= 6.816097D-01  Symmetry=a'
              MO Center=  1.5D-02, -1.1D+00,  2.7D-14, r^2= 4.2D+00
   Bfn.  Coefficient  Atom+Function         Bfn.  Coefficient  Atom+Function  
  ----- ------------  ---------------      ----- ------------  ---------------
     3     26.331636  1 C  s                 50     15.440472  5 F  s          
    32    -11.517672  3 H  s                 40    -11.517672  4 H  s          
     4     -7.232364  1 C  s                 49     -6.707917  5 F  s          
    24     -5.912504  2 H  s                 69     -4.490189  5 F  dyy        
    22      4.323881  1 C  dzz                9     -4.236490  1 C  py         

 Vector   35  Occ=0.000000D+00  E= 6.990549D-01  Symmetry=a'
              MO Center= -6.5D-02, -2.5D-01,  2.6D-14, r^2= 4.2D+00
   Bfn.  Coefficient  Atom+Function         Bfn.  Coefficient  Atom+Function  
  ----- ------------  ---------------      ----- ------------  ---------------
     3     33.369328  1 C  s                 32    -14.631388  3 H  s          
    40    -14.631388  4 H  s                 50     -7.804463  5 F  s          
    22      7.205264  1 C  dzz               24     -5.622446  2 H  s          
    38      2.849636  3 H  pz                46     -2.849636  4 H  pz         
    58     -2.636677  5 F  py                 9     -2.591841  1 C  py         

 Vector   36  Occ=0.000000D+00  E= 7.289000D-01  Symmetry=a'
              MO Center= -1.1D-01, -4.1D-01, -1.8D-15, r^2= 4.2D+00
   Bfn.  Coefficient  Atom+Function         Bfn.  Coefficient  Atom+Function  
  ----- ------------  ---------------      ----- ------------  ---------------
     3     13.861996  1 C  s                 24     -9.669478  2 H  s          
     8      4.490980  1 C  px                28      3.164289  2 H  px         
    17      2.632258  1 C  dxx                4     -2.600577  1 C  s          
    67     -2.426766  5 F  dxy                9     -1.334007  1 C  py         
    57     -1.271563  5 F  px                20      1.189871  1 C  dyy        

 Vector   37  Occ=0.000000D+00  E= 7.337880D-01  Symmetry=a"
              MO Center= -3.2D-02, -4.6D-01, -1.8D-13, r^2= 4.0D+00
   Bfn.  Coefficient  Atom+Function         Bfn.  Coefficient  Atom+Function  
  ----- ------------  ---------------      ----- ------------  ---------------
    32     -5.422001  3 H  s                 40      5.422001  4 H  s          
    10      5.173161  1 C  pz                70     -2.673991  5 F  dyz        
    38      2.012450  3 H  pz                46      2.012450  4 H  pz         
    19     -1.430042  1 C  dxz               21     -1.377483  1 C  dyz        
    59     -1.285819  5 F  pz                30      0.925913  2 H  pz         

 Vector   38  Occ=0.000000D+00  E= 7.407329D-01  Symmetry=a"
              MO Center= -3.1D-01, -2.7D-01,  3.5D-14, r^2= 3.6D+00
   Bfn.  Coefficient  Atom+Function         Bfn.  Coefficient  Atom+Function  
  ----- ------------  ---------------      ----- ------------  ---------------
    19      4.720203  1 C  dxz               21     -3.920790  1 C  dyz        
    32      3.363232  3 H  s                 40     -3.363232  4 H  s          
    68     -2.327641  5 F  dxz               37      2.168631  3 H  py         
    45     -2.168631  4 H  py                30     -1.453952  2 H  pz         
    10     -1.421741  1 C  pz                38     -0.961225  3 H  pz         

 Vector   39  Occ=0.000000D+00  E= 7.681997D-01  Symmetry=a'
              MO Center=  3.0D-01, -4.8D-01,  1.8D-14, r^2= 3.3D+00
   Bfn.  Coefficient  Atom+Function         Bfn.  Coefficient  Atom+Function  
  ----- ------------  ---------------      ----- ------------  ---------------
     3      4.925945  1 C  s                 32     -2.879917  3 H  s          
    40     -2.879917  4 H  s                 18     -2.764224  1 C  dxy        
    50     -2.633872  5 F  s                 22      2.371282  1 C  dzz        
    66      1.617830  5 F  dxx               29      1.556347  2 H  py         
    37     -1.178450  3 H  py                45     -1.178450  4 H  py         

 Vector   40  Occ=0.000000D+00  E= 8.883225D-01  Symmetry=a"
              MO Center= -1.9D-01,  2.4D-01, -8.3D-13, r^2= 3.7D+00
   Bfn.  Coefficient  Atom+Function         Bfn.  Coefficient  Atom+Function  
  ----- ------------  ---------------      ----- ------------  ---------------
    32      5.857282  3 H  s                 40     -5.857282  4 H  s          
    10     -4.448104  1 C  pz                19     -2.849420  1 C  dxz        
    36      1.700326  3 H  px                44     -1.700326  4 H  px         
    38     -1.679296  3 H  pz                46     -1.679296  4 H  pz         
    59     -1.386613  5 F  pz                70     -0.905582  5 F  dyz        

 Vector   41  Occ=0.000000D+00  E= 9.320352D-01  Symmetry=a'
              MO Center=  6.4D-03,  6.9D-01,  4.5D-13, r^2= 4.0D+00
   Bfn.  Coefficient  Atom+Function         Bfn.  Coefficient  Atom+Function  
  ----- ------------  ---------------      ----- ------------  ---------------
     3      8.580846  1 C  s                 22     -3.192961  1 C  dzz        
    17      3.019439  1 C  dxx               32     -2.938704  3 H  s          
    40     -2.938704  4 H  s                 38      2.831771  3 H  pz         
    46     -2.831771  4 H  pz                50      2.317261  5 F  s          
     4     -1.999863  1 C  s                 24     -1.258392  2 H  s          

 Vector   42  Occ=0.000000D+00  E= 9.453406D-01  Symmetry=a'
              MO Center=  4.5D-01,  4.8D-01,  3.5D-13, r^2= 3.5D+00
   Bfn.  Coefficient  Atom+Function         Bfn.  Coefficient  Atom+Function  
  ----- ------------  ---------------      ----- ------------  ---------------
     3     32.459376  1 C  s                 24    -19.329052  2 H  s          
    32     -9.698441  3 H  s                 40     -9.698441  4 H  s          
     8      5.445436  1 C  px                28      5.363647  2 H  px         
    22      3.639936  1 C  dzz               17      3.254427  1 C  dxx        
    50      2.201878  5 F  s                 38      2.115195  3 H  pz         

 Vector   43  Occ=0.000000D+00  E= 9.808622D-01  Symmetry=a'
              MO Center= -4.2D-01,  7.5D-01,  1.8D-13, r^2= 3.5D+00
   Bfn.  Coefficient  Atom+Function         Bfn.  Coefficient  Atom+Function  
  ----- ------------  ---------------      ----- ------------  ---------------
     3     30.336259  1 C  s                 32    -19.168067  3 H  s          
    40    -19.168067  4 H  s                 22      6.978239  1 C  dzz        
     8     -3.825440  1 C  px                38      3.153248  3 H  pz         
    46     -3.153248  4 H  pz                 4      2.618196  1 C  s          
    36     -2.595198  3 H  px                44     -2.595198  4 H  px         

 Vector   44  Occ=0.000000D+00  E= 1.015679D+00  Symmetry=a'
              MO Center= -2.8D-02,  3.6D-01,  1.0D-14, r^2= 3.9D+00
   Bfn.  Coefficient  Atom+Function         Bfn.  Coefficient  Atom+Function  
  ----- ------------  ---------------      ----- ------------  ---------------
     3     41.578359  1 C  s                 32    -18.690257  3 H  s          
    40    -18.690257  4 H  s                 24    -10.264363  2 H  s          
     4     -9.761129  1 C  s                 50      8.960884  5 F  s          
    22      8.452800  1 C  dzz               49     -6.123472  5 F  s          
     9     -5.153222  1 C  py                20      5.165772  1 C  dyy        

 Vector   45  Occ=0.000000D+00  E= 1.152717D+00  Symmetry=a"
              MO Center= -4.3D-02,  7.9D-01,  2.6D-13, r^2= 3.1D+00
   Bfn.  Coefficient  Atom+Function         Bfn.  Coefficient  Atom+Function  
  ----- ------------  ---------------      ----- ------------  ---------------
    32     10.838299  3 H  s                 40    -10.838299  4 H  s          
    19     10.524002  1 C  dxz               10     -7.400872  1 C  pz         
    38     -3.011448  3 H  pz                46     -3.011448  4 H  pz         
    30     -2.981624  2 H  pz                36     -1.725962  3 H  px         
    44      1.725962  4 H  px                31      1.067006  3 H  s          

 Vector   46  Occ=0.000000D+00  E= 1.316612D+00  Symmetry=a'
              MO Center=  1.3D-01,  2.8D-01, -2.9D-14, r^2= 3.0D+00
   Bfn.  Coefficient  Atom+Function         Bfn.  Coefficient  Atom+Function  
  ----- ------------  ---------------      ----- ------------  ---------------
     3     31.715811  1 C  s                 32    -18.294808  3 H  s          
    40    -18.294808  4 H  s                 22     10.952356  1 C  dzz        
     4     -6.377624  1 C  s                 24     -6.010440  2 H  s          
    50     -5.591279  5 F  s                 17      5.257351  1 C  dxx        
    20      3.397729  1 C  dyy               38      3.220886  3 H  pz         

 Vector   47  Occ=0.000000D+00  E= 1.359262D+00  Symmetry=a"
              MO Center=  1.4D-02, -1.7D-02,  4.4D-13, r^2= 2.3D+00
   Bfn.  Coefficient  Atom+Function         Bfn.  Coefficient  Atom+Function  
  ----- ------------  ---------------      ----- ------------  ---------------
    32      4.418396  3 H  s                 40     -4.418396  4 H  s          
    19      2.706870  1 C  dxz               21     -2.602519  1 C  dyz        
    10     -2.550232  1 C  pz                38     -1.532604  3 H  pz         
    46     -1.532604  4 H  pz                56     -1.061234  5 F  pz         
    30     -0.978195  2 H  pz                37      0.878267  3 H  py         

 Vector   48  Occ=0.000000D+00  E= 1.360336D+00  Symmetry=a'
              MO Center=  1.5D-01,  2.1D-01, -4.6D-13, r^2= 2.6D+00
   Bfn.  Coefficient  Atom+Function         Bfn.  Coefficient  Atom+Function  
  ----- ------------  ---------------      ----- ------------  ---------------
     3     21.295225  1 C  s                 32    -10.059103  3 H  s          
    40    -10.059103  4 H  s                 24     -7.713050  2 H  s          
    22      6.560016  1 C  dzz               50     -5.021610  5 F  s          
     4     -4.231677  1 C  s                 17      4.209519  1 C  dxx        
    49      2.535315  5 F  s                 20      2.366346  1 C  dyy        

 Vector   49  Occ=0.000000D+00  E= 1.586747D+00  Symmetry=a"
              MO Center= -1.5D-01,  6.5D-01,  3.5D-15, r^2= 2.0D+00
   Bfn.  Coefficient  Atom+Function         Bfn.  Coefficient  Atom+Function  
  ----- ------------  ---------------      ----- ------------  ---------------
    19      3.764269  1 C  dxz               30     -1.732063  2 H  pz         
    10      1.232207  1 C  pz                21     -0.727975  1 C  dyz        
    36     -0.706011  3 H  px                44      0.706011  4 H  px         
    13     -0.650534  1 C  dxz               32      0.585316  3 H  s          
    40     -0.585316  4 H  s                 33     -0.553141  3 H  px         

 Vector   50  Occ=0.000000D+00  E= 1.733394D+00  Symmetry=a"
              MO Center=  3.0D-01,  4.7D-01, -4.1D-15, r^2= 1.9D+00
   Bfn.  Coefficient  Atom+Function         Bfn.  Coefficient  Atom+Function  
  ----- ------------  ---------------      ----- ------------  ---------------
    32      2.954271  3 H  s                 40     -2.954271  4 H  s          
    10     -2.424814  1 C  pz                38     -0.927654  3 H  pz         
    46     -0.927654  4 H  pz                27      0.765361  2 H  pz         
    70     -0.719458  5 F  dyz               36      0.609173  3 H  px         
    44     -0.609173  4 H  px                15     -0.510435  1 C  dyz        

 Vector   51  Occ=0.000000D+00  E= 1.734722D+00  Symmetry=a'
              MO Center= -3.7D-02,  3.7D-01,  3.8D-15, r^2= 2.0D+00
   Bfn.  Coefficient  Atom+Function         Bfn.  Coefficient  Atom+Function  
  ----- ------------  ---------------      ----- ------------  ---------------
     3      7.312700  1 C  s                 24     -5.311263  2 H  s          
    32     -2.601866  3 H  s                 40     -2.601866  4 H  s          
     4     -1.847359  1 C  s                 50      1.723139  5 F  s          
    22      1.582724  1 C  dzz               28      1.573240  2 H  px         
    17      1.506095  1 C  dxx                8      1.406944  1 C  px         

 Vector   52  Occ=0.000000D+00  E= 1.806062D+00  Symmetry=a'
              MO Center=  1.5D-01,  3.0D-01,  1.4D-14, r^2= 2.3D+00
   Bfn.  Coefficient  Atom+Function         Bfn.  Coefficient  Atom+Function  
  ----- ------------  ---------------      ----- ------------  ---------------
     3     10.160602  1 C  s                  9     -3.279687  1 C  py         
    49     -2.879565  5 F  s                 50     -2.869454  5 F  s          
    24     -2.366586  2 H  s                 55     -1.835013  5 F  py         
    20      1.337541  1 C  dyy               32     -1.121200  3 H  s          
    40     -1.121200  4 H  s                 58     -1.098756  5 F  py         

 Vector   53  Occ=0.000000D+00  E= 1.990781D+00  Symmetry=a'
              MO Center= -3.8D-02,  3.9D-01,  3.5D-15, r^2= 2.3D+00
   Bfn.  Coefficient  Atom+Function         Bfn.  Coefficient  Atom+Function  
  ----- ------------  ---------------      ----- ------------  ---------------
    24      5.109319  2 H  s                 32     -4.501518  3 H  s          
    40     -4.501518  4 H  s                  8     -4.278018  1 C  px         
    22      2.987566  1 C  dzz               50     -1.367994  5 F  s          
     3      1.338161  1 C  s                 17     -1.243477  1 C  dxx        
    28     -1.232707  2 H  px                54      1.176695  5 F  px         

 Vector   54  Occ=0.000000D+00  E= 2.019635D+00  Symmetry=a"
              MO Center=  6.2D-02,  1.9D-01, -7.8D-14, r^2= 2.3D+00
   Bfn.  Coefficient  Atom+Function         Bfn.  Coefficient  Atom+Function  
  ----- ------------  ---------------      ----- ------------  ---------------
    10      5.896795  1 C  pz                32     -5.340375  3 H  s          
    40      5.340375  4 H  s                 19     -2.936537  1 C  dxz        
    70     -1.729371  5 F  dyz               38      1.528642  3 H  pz         
    46      1.528642  4 H  pz                56     -1.525296  5 F  pz         
    21     -1.304396  1 C  dyz               30      0.897768  2 H  pz         

 Vector   55  Occ=0.000000D+00  E= 2.078316D+00  Symmetry=a'
              MO Center= -7.3D-02, -8.9D-01,  6.9D-15, r^2= 2.0D+00
   Bfn.  Coefficient  Atom+Function         Bfn.  Coefficient  Atom+Function  
  ----- ------------  ---------------      ----- ------------  ---------------
     3     15.497722  1 C  s                 50      8.747804  5 F  s          
    32     -5.822284  3 H  s                 40     -5.822284  4 H  s          
    24     -4.392091  2 H  s                  4     -3.816434  1 C  s          
    69     -3.439110  5 F  dyy               71     -2.978354  5 F  dzz        
     9     -2.953158  1 C  py                66     -2.961031  5 F  dxx        

 Vector   56  Occ=0.000000D+00  E= 2.082993D+00  Symmetry=a'
              MO Center= -1.1D-01,  2.6D-01,  7.3D-14, r^2= 2.1D+00
   Bfn.  Coefficient  Atom+Function         Bfn.  Coefficient  Atom+Function  
  ----- ------------  ---------------      ----- ------------  ---------------
     3     24.679700  1 C  s                 32    -10.734249  3 H  s          
    40    -10.734249  4 H  s                 24     -5.967009  2 H  s          
    22      4.036885  1 C  dzz               50     -3.155839  5 F  s          
    49     -2.467633  5 F  s                 38      2.362436  3 H  pz         
    46     -2.362436  4 H  pz                17      2.335686  1 C  dxx        

 Vector   57  Occ=0.000000D+00  E= 2.179984D+00  Symmetry=a'
              MO Center=  8.6D-02,  5.1D-01, -1.3D-14, r^2= 1.9D+00
   Bfn.  Coefficient  Atom+Function         Bfn.  Coefficient  Atom+Function  
  ----- ------------  ---------------      ----- ------------  ---------------
     3     13.515836  1 C  s                 24     -6.041739  2 H  s          
    32     -3.809711  3 H  s                 40     -3.809711  4 H  s          
    22      2.261788  1 C  dzz               49     -1.994254  5 F  s          
    28      1.919421  2 H  px                 9     -1.618120  1 C  py         
    50     -1.583980  5 F  s                  8      1.076320  1 C  px         

 Vector   58  Occ=0.000000D+00  E= 2.201333D+00  Symmetry=a'
              MO Center=  1.2D-01,  4.7D-01, -1.8D-15, r^2= 1.5D+00
   Bfn.  Coefficient  Atom+Function         Bfn.  Coefficient  Atom+Function  
  ----- ------------  ---------------      ----- ------------  ---------------
    32     -3.284369  3 H  s                 40     -3.284369  4 H  s          
     3      3.085464  1 C  s                  8     -1.889147  1 C  px         
    50      1.822635  5 F  s                 12      1.685176  1 C  dxy        
    22      1.533874  1 C  dzz                4     -0.945500  1 C  s          
    24      0.875755  2 H  s                 67      0.830808  5 F  dxy        

 Vector   59  Occ=0.000000D+00  E= 2.308874D+00  Symmetry=a"
              MO Center= -1.8D-01,  5.5D-01, -1.5D-15, r^2= 1.4D+00
   Bfn.  Coefficient  Atom+Function         Bfn.  Coefficient  Atom+Function  
  ----- ------------  ---------------      ----- ------------  ---------------
    15      1.646274  1 C  dyz               19     -0.653657  1 C  dxz        
    34     -0.655936  3 H  py                42      0.655936  4 H  py         
    32     -0.444234  3 H  s                 40      0.444234  4 H  s          
    64     -0.355550  5 F  dyz               37      0.273929  3 H  py         
    45     -0.273929  4 H  py                70      0.257231  5 F  dyz        

 Vector   60  Occ=0.000000D+00  E= 2.389759D+00  Symmetry=a'
              MO Center=  2.0D-01,  2.1D-01, -5.2D-15, r^2= 1.7D+00
   Bfn.  Coefficient  Atom+Function         Bfn.  Coefficient  Atom+Function  
  ----- ------------  ---------------      ----- ------------  ---------------
     3     13.541938  1 C  s                 32     -7.565995  3 H  s          
    40     -7.565995  4 H  s                 22      3.969237  1 C  dzz        
    24     -3.287458  2 H  s                  4     -2.496763  1 C  s          
    17      1.779244  1 C  dxx               20      1.746567  1 C  dyy        
    55      1.517624  5 F  py                38      1.336115  3 H  pz         

 Vector   61  Occ=0.000000D+00  E= 2.421354D+00  Symmetry=a"
              MO Center= -8.5D-03,  6.4D-01,  7.6D-15, r^2= 1.8D+00
   Bfn.  Coefficient  Atom+Function         Bfn.  Coefficient  Atom+Function  
  ----- ------------  ---------------      ----- ------------  ---------------
    32     -2.317288  3 H  s                 40      2.317288  4 H  s          
    10      2.299384  1 C  pz                19      1.699991  1 C  dxz        
     7      0.798085  1 C  pz                36     -0.762968  3 H  px         
    44      0.762968  4 H  px                27     -0.749281  2 H  pz         
    38      0.689630  3 H  pz                46      0.689630  4 H  pz         

 Vector   62  Occ=0.000000D+00  E= 2.867846D+00  Symmetry=a"
              MO Center= -1.1D-01,  6.2D-01,  8.5D-15, r^2= 1.3D+00
   Bfn.  Coefficient  Atom+Function         Bfn.  Coefficient  Atom+Function  
  ----- ------------  ---------------      ----- ------------  ---------------
    32      2.938905  3 H  s                 40     -2.938905  4 H  s          
    10     -2.149011  1 C  pz                13      2.117785  1 C  dxz        
    19      1.925655  1 C  dxz               35     -0.915629  3 H  pz         
    43     -0.915629  4 H  pz                31      0.904362  3 H  s          
    39     -0.904362  4 H  s                  7     -0.887852  1 C  pz         

 Vector   63  Occ=0.000000D+00  E= 2.890727D+00  Symmetry=a'
              MO Center=  4.4D-01,  5.7D-01,  3.1D-15, r^2= 1.3D+00
   Bfn.  Coefficient  Atom+Function         Bfn.  Coefficient  Atom+Function  
  ----- ------------  ---------------      ----- ------------  ---------------
     3     12.508270  1 C  s                 24     -6.388865  2 H  s          
    32     -4.884762  3 H  s                 40     -4.884762  4 H  s          
    22      2.227286  1 C  dzz                8      1.812734  1 C  px         
    28      1.716985  2 H  px                25      1.478418  2 H  px         
    23     -1.226500  2 H  s                 17      1.145689  1 C  dxx        

 Vector   64  Occ=0.000000D+00  E= 3.218458D+00  Symmetry=a'
              MO Center= -1.3D-01,  4.5D-01,  4.6D-15, r^2= 1.4D+00
   Bfn.  Coefficient  Atom+Function         Bfn.  Coefficient  Atom+Function  
  ----- ------------  ---------------      ----- ------------  ---------------
     3      7.785399  1 C  s                 32     -4.702075  3 H  s          
    40     -4.702075  4 H  s                 22      1.738642  1 C  dzz        
    16      1.481575  1 C  dzz                8     -1.268571  1 C  px         
    31     -0.999757  3 H  s                 39     -0.999757  4 H  s          
    11     -0.946862  1 C  dxx               35      0.866031  3 H  pz         

 Vector   65  Occ=0.000000D+00  E= 3.369163D+00  Symmetry=a"
              MO Center= -2.3D-02, -6.3D-01,  1.6D-16, r^2= 5.9D-01
   Bfn.  Coefficient  Atom+Function         Bfn.  Coefficient  Atom+Function  
  ----- ------------  ---------------      ----- ------------  ---------------
    62      1.796412  5 F  dxz               21     -0.886933  1 C  dyz        
    68     -0.822465  5 F  dxz               19      0.616203  1 C  dxz        
    37      0.487690  3 H  py                45     -0.487690  4 H  py         
    13     -0.291166  1 C  dxz               64      0.219650  5 F  dyz        
    10      0.181572  1 C  pz                30     -0.152314  2 H  pz         

 Vector   66  Occ=0.000000D+00  E= 3.394072D+00  Symmetry=a'
              MO Center= -1.1D-04, -5.7D-01,  5.8D-17, r^2= 7.2D-01
   Bfn.  Coefficient  Atom+Function         Bfn.  Coefficient  Atom+Function  
  ----- ------------  ---------------      ----- ------------  ---------------
    60      0.897578  5 F  dxx               65     -0.848027  5 F  dzz        
    18      0.643733  1 C  dxy               50      0.615408  5 F  s          
    66     -0.579253  5 F  dxx               22     -0.540689  1 C  dzz        
    29     -0.431182  2 H  py                 8     -0.407167  1 C  px         
    16      0.395969  1 C  dzz               49     -0.343697  5 F  s          

 Vector   67  Occ=0.000000D+00  E= 3.555815D+00  Symmetry=a'
              MO Center= -1.4D-02, -4.6D-01,  2.5D-16, r^2= 9.0D-01
   Bfn.  Coefficient  Atom+Function         Bfn.  Coefficient  Atom+Function  
  ----- ------------  ---------------      ----- ------------  ---------------
    24      2.838156  2 H  s                 61      1.754805  5 F  dxy        
    32     -1.545653  3 H  s                 40     -1.545653  4 H  s          
     8     -1.509591  1 C  px                22      0.714069  1 C  dzz        
    67     -0.711921  5 F  dxy               12      0.652565  1 C  dxy        
    28     -0.655166  2 H  px                23      0.565248  2 H  s          

 Vector   68  Occ=0.000000D+00  E= 3.569333D+00  Symmetry=a"
              MO Center= -9.8D-05, -5.2D-01,  2.7D-15, r^2= 8.2D-01
   Bfn.  Coefficient  Atom+Function         Bfn.  Coefficient  Atom+Function  
  ----- ------------  ---------------      ----- ------------  ---------------
    32      2.132672  3 H  s                 40     -2.132672  4 H  s          
    64      1.802517  5 F  dyz               10     -1.614833  1 C  pz         
    15      0.767037  1 C  dyz               70     -0.740892  5 F  dyz        
    19      0.697933  1 C  dxz               38     -0.534804  3 H  pz         
    46     -0.534804  4 H  pz                59     -0.454313  5 F  pz         

 Vector   69  Occ=0.000000D+00  E= 4.038653D+00  Symmetry=a'
              MO Center= -1.5D-02, -3.0D-01, -2.1D-16, r^2= 9.8D-01
   Bfn.  Coefficient  Atom+Function         Bfn.  Coefficient  Atom+Function  
  ----- ------------  ---------------      ----- ------------  ---------------
    49      3.033979  5 F  s                  3     -2.575887  1 C  s          
     9      2.050109  1 C  py                50     -1.467410  5 F  s          
    55      1.459151  5 F  py                63      1.063756  5 F  dyy        
     4      0.951841  1 C  s                 14     -0.845162  1 C  dyy        
    16      0.780975  1 C  dzz               66      0.692865  5 F  dxx        

 Vector   70  Occ=0.000000D+00  E= 5.338825D+00  Symmetry=a'
              MO Center= -3.9D-02,  6.7D-01,  1.9D-15, r^2= 6.4D-01
   Bfn.  Coefficient  Atom+Function         Bfn.  Coefficient  Atom+Function  
  ----- ------------  ---------------      ----- ------------  ---------------
     3     -3.981331  1 C  s                  2      3.659116  1 C  s          
    16     -2.275348  1 C  dzz               11     -1.992560  1 C  dxx        
    14     -1.962904  1 C  dyy               32      1.382041  3 H  s          
    40      1.382041  4 H  s                  4      1.295368  1 C  s          
    22     -1.179345  1 C  dzz               50      0.961715  5 F  s          

 Vector   71  Occ=0.000000D+00  E= 7.316956D+00  Symmetry=a'
              MO Center= -6.6D-03, -6.5D-01, -1.9D-16, r^2= 6.2D-01
   Bfn.  Coefficient  Atom+Function         Bfn.  Coefficient  Atom+Function  
  ----- ------------  ---------------      ----- ------------  ---------------
    50      3.681539  5 F  s                 63     -1.643029  5 F  dyy        
    60     -1.611634  5 F  dxx               65     -1.612983  5 F  dzz        
    49      1.548516  5 F  s                 66     -1.371567  5 F  dxx        
    71     -1.359489  5 F  dzz               48      1.348972  5 F  s          
    69     -1.154814  5 F  dyy                4     -1.137968  1 C  s          


 center of mass
 --------------
 x =  -0.01467448 y =  -0.14384398 z =   0.00000000

 moments of inertia (a.u.)
 ------------------
          58.138900823529           0.000000000000           0.000000000000
           0.000000000000          12.586315385939           0.000000000000
           0.000000000000           0.000000000000          55.747584973798

     Multipole analysis of the density
     ---------------------------------

     L   x y z        total         alpha         beta         nuclear
     -   - - -        -----         -----         ----         -------
     0   0 0 0     -0.000000     -9.000000     -9.000000     18.000000

     1   1 0 0      0.034357      0.017179      0.017179     -0.000000
     1   0 1 0      0.529933      0.264966      0.264966      0.000000
     1   0 0 1     -0.000000     -0.000000     -0.000000      0.000000

     2   2 0 0     -9.094025     -7.067069     -7.067069      5.040113
     2   1 1 0      0.028014     -0.175367     -0.175367      0.378749
     2   1 0 1     -0.000000     -0.000000     -0.000000      0.000000
     2   0 2 0    -10.448728    -18.815879    -18.815879     27.183029
     2   0 1 1      0.000000      0.000000      0.000000      0.000000
     2   0 0 2     -8.234996     -7.832833     -7.832833      7.430671


 Parallel integral file used      42 records with       0 large values


            General Information
            -------------------
          SCF calculation type: DFT
          Wavefunction type:  closed shell.
          No. of atoms     :     5
          No. of electrons :    18
           Alpha electrons :     9
            Beta electrons :     9
          Charge           :     0
          Spin multiplicity:     1
          Use of symmetry is: on ; symmetry adaption is: on 
          Maximum number of iterations: 200
          AO basis - number of functions:    71
                     number of shells:    29
          Convergence on energy requested:  1.00D-06
          Convergence on density requested:  1.00D-05
          Convergence on gradient requested:  5.00D-04

              XC Information
              --------------
                         B3LYP Method XC Potential
                     Hartree-Fock (Exact) Exchange  0.200          
                        Slater Exchange Functional  0.800 local    
                    Becke 1988 Exchange Functional  0.720 non-local
              Lee-Yang-Parr Correlation Functional  0.810          
                  VWN I RPA Correlation Functional  0.190 local    

             Grid Information
             ----------------
          Grid used for XC integration:  xfine     
          Radial quadrature: Mura-Knowles        
          Angular quadrature: Lebedev. 
          Tag              B.-S. Rad. Rad. Pts. Rad. Cut. Ang. Pts.
          ---              ---------- --------- --------- ---------
          C                   0.70      100           8.0      1454
          H                   0.35      100           8.0      1202
          F                   0.50      100           8.0      1454
          Grid pruning is: on 
          Number of quadrature shells:   400
          Spatial weights used:  Erf1

          Convergence Information
          -----------------------
          Convergence aids based upon iterative change in 
          total energy or number of iterations. 
          Levelshifting, if invoked, occurs when the 
          HOMO/LUMO gap drops below (HL_TOL):  1.00D-02
          DIIS, if invoked, will attempt to extrapolate 
          using up to (NFOCK): 10 stored Fock matrices.

                    Damping( 0%)  Levelshifting(0.5)       DIIS
                  --------------- ------------------- ---------------
          dE  on:    start            ASAP                start   
          dE off:    2 iters        200 iters           200 iters 


      Screening Tolerance Information
      -------------------------------
          Density screening/tol_rho:  1.00D-10
          AO Gaussian exp screening on grid/accAOfunc:  14
          CD Gaussian exp screening on grid/accCDfunc:  20
          XC Gaussian exp screening on grid/accXCfunc:  20
          Schwarz screening/accCoul:  1.00D-08



                            NWChem DFT Gradient Module
                            --------------------------


                                CH3F water opt+freq



  charge          =   0.00
  wavefunction    = closed shell

  Using symmetry


                         DFT ENERGY GRADIENTS

    atom               coordinates                        gradient
                 x          y          z           x          y          z
   1 C      -0.063154   1.227279   0.000000   -0.040467  -0.011898   0.000000
   2 H       1.977315   1.269429   0.000000   -0.020017  -0.057155   0.000000
   3 H      -0.743310   1.213230   1.927521    0.026411  -0.063382  -0.007161
   4 H      -0.743310   1.213230  -1.927521    0.026411  -0.063382   0.007161
   5 F      -0.012419  -1.228840   0.000000    0.007661   0.195817   0.000000

                 ----------------------------------------
                 |  Time  |  1-e(secs)   |  2-e(secs)   |
                 ----------------------------------------
                 |  CPU   |       0.12   |       1.71   |
                 ----------------------------------------
                 |  WALL  |       0.05   |       1.65   |
                 ----------------------------------------
  no constraints, skipping    0.0000000000000000     

@ Step       Energy      Delta E   Gmax     Grms     Xrms     Xmax   Walltime
@ ---- ---------------- -------- -------- -------- -------- -------- --------
@    0    -139.57449926  0.0D+00  0.19562  0.07269  0.00000  0.00000    113.7
                                                                    



                                Z-matrix (autoz)
                                -------- 

 Units are Angstrom for bonds and degrees for angles

      Type          Name      I     J     K     L     M      Value     Gradient
      ----------- --------  ----- ----- ----- ----- ----- ---------- ----------
    1 Stretch                  1     2                       1.08000   -0.02120
    2 Stretch                  1     3                       1.08167   -0.01510
    3 Stretch                  1     4                       1.08167   -0.01510
    4 Stretch                  1     5                       1.30000   -0.19562
    5 Bend                     2     1     3               109.44003   -0.00767
    6 Bend                     2     1     4               109.44003   -0.00767
    7 Bend                     2     1     5                90.00000   -0.06125
    8 Bend                     3     1     4               141.11993    0.01534
    9 Bend                     3     1     5                90.00000   -0.06914
   10 Bend                     4     1     5                90.00000   -0.06914

 Restricting large step in mode    1 eval= 1.2D-02 step= 3.3D-01 new= 3.0D-01
 Restricting large step in mode    2 eval= 1.9D-02 step= 5.3D+00 new= 3.0D-01
 Restricting large step in mode    9 eval= 3.8D-01 step= 4.6D-01 new= 3.0D-01
 Restricting overall step due to large component. alpha=  0.75
  no constraints, skipping    0.0000000000000000     
  no constraints, skipping    0.0000000000000000     
[...]
           5     0.11144    -0.66256     0.00000     0.00000     0.56773     0.25799
           6     0.00000    -0.00000     0.27072    -0.70575    -0.00000     0.00000
           7    -0.00848     0.23883     0.06247    -0.37763     0.46975    -0.16562
           8     0.11072     0.32635    -0.57688    -0.28393     0.10809     0.52845
           9     0.02037     0.07882     0.13747    -0.06679     0.22909    -0.33021
          10    -0.00848     0.23883    -0.06247     0.37763     0.46975    -0.16562
          11     0.11072     0.32635     0.57688     0.28393     0.10809     0.52845
          12    -0.02037    -0.07882     0.13747    -0.06679    -0.22909     0.33021
          13    -0.00432     0.04598    -0.00000     0.00000    -0.00827     0.00419
          14    -0.15044    -0.00159     0.00000    -0.00000    -0.01242    -0.02082
          15    -0.00000     0.00000     0.04603     0.00923    -0.00000    -0.00000

                   13          14          15
 
 Frequency       3051.12     3155.76     3156.94
 
           1    -0.00172    -0.09178     0.00000
           2    -0.03965     0.00286     0.00000
           3     0.00000     0.00000     0.09187
           4     0.55313     0.73943    -0.00000
           5     0.15465     0.20536    -0.00000
           6     0.00000     0.00000     0.01441
           7    -0.26579     0.17158     0.31924
           8     0.17580    -0.11948    -0.20586
           9     0.46928    -0.32824    -0.54907
          10    -0.26579     0.17158    -0.31924
          11     0.17580    -0.11948     0.20586
          12    -0.46928     0.32824    -0.54907
          13    -0.00005     0.00054     0.00000
          14    -0.00181    -0.00002     0.00000
          15     0.00000     0.00000    -0.00054



 ----------------------------------------------------------------------------
 Normal Eigenvalue ||         Derivative Dipole Moments (debye/angs)
  Mode   [cm**-1]  ||      [d/dqX]             [d/dqY]           [d/dqZ]
 ------ ---------- || ------------------ ------------------ -----------------
    1      -34.877 ||       0.000              -0.000             0.108
    2       -2.292 ||       0.007              -0.000            -0.000
    3        1.073 ||       0.001              -0.000             0.000
    4        1.422 ||       0.000               0.000             0.011
    5       45.511 ||       0.000              -0.000             0.505
    6       45.712 ||       0.511              -0.009            -0.000
    7      990.500 ||       0.058               2.031             0.000
    8     1177.834 ||      -0.209               0.012            -0.000
    9     1179.342 ||       0.000              -0.000            -0.204
   10     1439.081 ||      -0.000               0.000            -0.578
   11     1442.164 ||       0.534              -0.036             0.000
   12     1443.764 ||      -0.287              -0.047             0.000
   13     3051.122 ||      -0.030              -0.848             0.000
   14     3155.763 ||      -0.701               0.019             0.000
   15     3156.938 ||      -0.000               0.000            -0.702
 ----------------------------------------------------------------------------



  
  
 ----------------------------------------------------------------------------
 Normal Eigenvalue ||                 Infra Red Intensities
  Mode   [cm**-1]  || [atomic units] [(debye/angs)**2] [(KM/mol)] [arbitrary]
 ------ ---------- || -------------- ----------------- ---------- -----------
    1      -34.877 ||    0.000509           0.012         0.496       0.246
    2       -2.292 ||    0.000002           0.000         0.002       0.001
    3        1.073 ||    0.000000           0.000         0.000       0.000
    4        1.422 ||    0.000005           0.000         0.005       0.002
    5       45.511 ||    0.011047           0.255        10.770       5.345
    6       45.712 ||    0.011319           0.261        11.034       5.477
    7      990.500 ||    0.178993           4.130       174.492      86.609
    8     1177.834 ||    0.001901           0.044         1.853       0.920
    9     1179.342 ||    0.001802           0.042         1.757       0.872
   10     1439.081 ||    0.014475           0.334        14.111       7.004
   11     1442.164 ||    0.012410           0.286        12.098       6.005
   12     1443.764 ||    0.003671           0.085         3.579       1.776
   13     3051.122 ||    0.031186           0.719        30.401      15.090
   14     3155.763 ||    0.021301           0.491        20.766      10.307
   15     3156.938 ||    0.021382           0.493        20.845      10.346
 ----------------------------------------------------------------------------





        Vibrational analysis via the FX method 
  --- with translations and rotations projected out ---
  --- via the Eckart algorithm                      ---
 Projected Nuclear Hessian trans-rot subspace norm:7.1024D-33
                         (should be close to zero!) 

          --------------------------------------------------------
          MASS-WEIGHTED PROJECTED HESSIAN (Hartree/Bohr/Bohr/Kamu)
          --------------------------------------------------------


               1            2            3            4            5            6            7            8            9           10
   ----- ----- ----- ----- -----
    1    4.99870D+01
    2   -4.71408D-01  3.40743D+01
    3   -1.31813D-16 -3.89142D-17  5.00609D+01
    4   -8.94874D+01 -1.91772D+01  9.27947D-17  3.20468D+02
    5   -1.60603D+01 -1.67848D+01 -8.08560D-16  7.47949D+01  7.88313D+01
    6    5.12939D-16  3.62966D-17 -1.49337D+01  2.48959D-16  6.30921D-16  4.33822D+01
    7   -3.27671D+01  1.10550D+01  3.13909D+01 -9.79103D+00  8.10867D+00  2.36805D+01  1.09229D+02
    8    9.48828D+00 -1.83776D+01 -1.65744D+01 -2.49306D+00  5.10978D+00  6.37632D+00 -4.15813D+01  8.57210D+01
    9    3.12831D+01 -1.93045D+01 -7.01506D+01 -1.53063D+00  1.00627D+00  2.69845D+00 -1.15988D+02  7.40199D+01  2.48220D+02
   10   -3.27671D+01  1.10550D+01 -3.13909D+01 -9.79103D+00  8.10867D+00 -2.36805D+01  8.83484D+00 -4.77845D+00  1.23984D+01  1.09229D+02
   11    9.48828D+00 -1.83776D+01  1.65744D+01 -2.49306D+00  5.10978D+00 -6.37632D+00 -4.77845D+00  5.52910D+00 -6.53870D+00 -4.15813D+01
   12   -3.12831D+01  1.93045D+01 -7.01506D+01  1.53063D+00 -1.00627D+00  2.69845D+00 -1.23984D+01  6.53870D+00 -1.63625D+01  1.15988D+02
   13   -4.02251D+00 -3.00830D-01  1.46862D-17  1.82002D+00 -8.19806D+00 -3.02093D-16  1.10422D+00  3.71101D+00 -6.50987D-01  1.10422D+00
   14   -2.97019D-01 -1.47493D+01  2.14213D-17 -8.37315D-01 -7.17053D+00 -8.95914D-17  2.40566D-02 -7.58811D+00 -4.31836D-01  2.40566D-02
   15   -2.64992D-17 -2.67908D-16 -4.03212D+00 -6.54991D-17  8.60760D-17  6.33734D-01 -8.32115D-01 -6.85039D+00  1.72910D+00  8.32115D-01


              11           12           13           14           15
   ----- ----- ----- ----- -----
   11    8.57210D+01
   12   -7.40199D+01  2.48220D+02
   13    3.71101D+00  6.50987D-01  2.26906D+00
   14   -7.58811D+00  4.31836D-01  4.17827D-01  1.68690D+01
   15    6.85039D+00  1.72910D+00  6.48229D-17  1.86213D-17  2.26208D+00

 center of mass
 --------------
 x =   0.04552492 y =  -0.54294842 z =   0.00000000

 moments of inertia (a.u.)
 ------------------
          72.067257592803          -1.761847022355           0.000000000000
          -1.761847022355          11.811193993402           0.000000000000
           0.000000000000           0.000000000000          72.115179342146

 Rotational Constants
 --------------------
 A=   5.119183 cm-1  (  7.365198 K)
 B=   0.834778 cm-1  (  1.201033 K)
 C=   0.834737 cm-1  (  1.200974 K)


 Temperature                      =   298.15K
 frequency scaling parameter      =   1.0000

 Zero-Point correction to Energy  =   24.343 kcal/mol  (  0.038793 au)
 Thermal correction to Energy     =   26.178 kcal/mol  (  0.041718 au)
 Thermal correction to Enthalpy   =   26.771 kcal/mol  (  0.042662 au)

 Total Entropy                    =   55.466 cal/mol-K
   - Translational                =   36.488 cal/mol-K (mol. weight =  34.0219)
   - Rotational                   =   18.745 cal/mol-K (symmetry #  =        1)
   - Vibrational                  =    0.233 cal/mol-K

 Cv (constant volume heat capacity) =    7.060 cal/mol-K
   - Translational                  =    2.979 cal/mol-K
   - Rotational                     =    2.979 cal/mol-K
   - Vibrational                    =    1.101 cal/mol-K



          -------------------------------------------------
          NORMAL MODE EIGENVECTORS IN CARTESIAN COORDINATES
          -------------------------------------------------
             (Projected Frequencies expressed in cm-1)

                    1           2           3           4           5           6
 
 P.Frequency       -0.00       -0.00       -0.00        0.00        0.00        0.00
 
           1     0.00108     0.23961     0.01439     0.00030     0.00117     0.00157
           2     0.00770    -0.00310     0.00777     0.00103    -0.17113    -0.00063
           3    -0.13944    -0.00066     0.00054     0.02007    -0.00683     0.19430
           4     0.00124     0.29087    -0.03197     0.00034     0.00012     0.00194
           5     0.00718    -0.17688     0.16494     0.00088    -0.16758    -0.00189
           6     0.29031    -0.00506    -0.00030    -0.05330     0.01071     0.57651
           7    -0.39868     0.30210    -0.03788     0.02481    -0.01683    -0.29314
           8     0.11325     0.08139    -0.06903     0.13167    -0.16695    -0.11167
           9    -0.40720     0.00142     0.00121    -0.01751    -0.01866     0.07128
          10     0.40120     0.29461    -0.03959    -0.02412     0.01677     0.29713
          11    -0.09734     0.08121    -0.06810    -0.12948    -0.17877     0.11164
          12    -0.40720     0.00142     0.00121    -0.01751    -0.01866     0.07128
          13     0.00039     0.00753     0.22430     0.00011     0.00592    -0.00012
          14     0.00772     0.00367     0.00165     0.00103    -0.17127    -0.00058
          15     0.00623    -0.00036    -0.00014     0.22433     0.00160     0.00719

                    7           8           9          10          11          12
 
 P.Frequency      990.50     1178.16     1179.32     1438.99     1441.73     1443.71
 
           1     0.00655    -0.11872    -0.00000     0.00000    -0.05089     0.02354
           2     0.21021     0.00420     0.00000    -0.00000    -0.04011    -0.08076
           3    -0.00000    -0.00000     0.11880     0.05598     0.00000    -0.00000
           4     0.02608     0.07280     0.00000    -0.00000    -0.19960    -0.08900
           5     0.11320    -0.66562    -0.00000     0.00000     0.54157     0.30087
           6     0.00000     0.00000    -0.27085    -0.70643     0.00000     0.00000
           7    -0.00887     0.23546    -0.06079    -0.37754     0.48301    -0.12914
           8     0.10986     0.32621     0.57706    -0.28305     0.06950     0.53514
           9     0.02020     0.07725    -0.13646    -0.06699     0.25425    -0.31168
          10    -0.00887     0.23546     0.06079     0.37754     0.48301    -0.12914
          11     0.10986     0.32621    -0.57706     0.28305     0.06950     0.53514
          12    -0.02020    -0.07725    -0.13646    -0.06699    -0.25425     0.31168
          13    -0.00458     0.04615     0.00000     0.00000    -0.00851     0.00355
          14    -0.15043    -0.00196     0.00000    -0.00000    -0.01077    -0.02172
          15     0.00000     0.00000    -0.04619     0.00923    -0.00000    -0.00000

                   13          14          15
 
 P.Frequency     3051.14     3155.85     3156.92
 
           1    -0.00172    -0.09178    -0.00000
           2    -0.03965     0.00286     0.00000
           3     0.00000    -0.00000     0.09187
           4     0.55312     0.73954     0.00000
           5     0.15451     0.20506     0.00000
           6     0.00000    -0.00000     0.01437
           7    -0.26575     0.17169     0.31927
           8     0.17589    -0.11931    -0.20584
           9     0.46930    -0.32820    -0.54905
          10    -0.26575     0.17169    -0.31927
          11     0.17589    -0.11931     0.20584
          12    -0.46930     0.32820    -0.54905
          13    -0.00006     0.00053     0.00000
          14    -0.00181    -0.00002     0.00000
          15     0.00000     0.00000    -0.00054



 ----------------------------------------------------------------------------
 Normal Eigenvalue ||    Projected Derivative Dipole Moments (debye/angs)
  Mode   [cm**-1]  ||      [d/dqX]             [d/dqY]           [d/dqZ]
 ------ ---------- || ------------------ ------------------ -----------------
    1       -0.000 ||       0.001              -0.000            -0.240
    2       -0.000 ||       0.378              -0.008            -0.001
    3       -0.000 ||      -0.342               0.007             0.001
    4        0.000 ||       0.000              -0.000            -0.337
    5        0.000 ||      -0.008               0.000            -0.014
    6        0.000 ||       0.003              -0.000             0.308
    7      990.497 ||       0.059               2.031            -0.000
    8     1178.165 ||      -0.213               0.018            -0.000
    9     1179.316 ||      -0.000               0.000             0.205
   10     1438.986 ||      -0.000               0.000            -0.578
   11     1441.727 ||       0.554              -0.033             0.000
   12     1443.714 ||      -0.245              -0.050             0.000
   13     3051.137 ||      -0.030              -0.848             0.000
   14     3155.846 ||      -0.701               0.019            -0.000
   15     3156.924 ||       0.000              -0.000            -0.702
 ----------------------------------------------------------------------------



  
  
 ----------------------------------------------------------------------------
 Normal Eigenvalue ||           Projected Infra Red Intensities
  Mode   [cm**-1]  || [atomic units] [(debye/angs)**2] [(KM/mol)] [arbitrary]
 ------ ---------- || -------------- ----------------- ---------- -----------
    1       -0.000 ||    0.002495           0.058         2.432       1.207
    2       -0.000 ||    0.006201           0.143         6.045       3.001
    3       -0.000 ||    0.005073           0.117         4.946       2.455
    4        0.000 ||    0.004913           0.113         4.790       2.377
    5        0.000 ||    0.000011           0.000         0.011       0.005
    6        0.000 ||    0.004126           0.095         4.022       1.996
    7      990.497 ||    0.178991           4.129       174.489      86.607
    8     1178.165 ||    0.001974           0.046         1.925       0.955
    9     1179.316 ||    0.001825           0.042         1.779       0.883
   10     1438.986 ||    0.014472           0.334        14.108       7.002
   11     1441.727 ||    0.013338           0.308        13.003       6.454
   12     1443.714 ||    0.002717           0.063         2.649       1.315
   13     3051.137 ||    0.031185           0.719        30.401      15.089
   14     3155.846 ||    0.021300           0.491        20.765      10.307
   15     3156.924 ||    0.021383           0.493        20.845      10.346
 ----------------------------------------------------------------------------



 vib:animation  F

 Task  times  cpu:     1378.0s     wall:      536.4s
 Summary of allocated global arrays
-----------------------------------
  No active global arrays


MA_summarize_allocated_blocks: starting scan ...
MA_summarize_allocated_blocks: scan completed: 0 heap blocks, 0 stack blocks
MA usage statistics:

	allocation statistics:
					      heap	     stack
					      ----	     -----
	current number of blocks	         0	         0
	maximum number of blocks	        27	        57
	current total bytes		         0	         0
	maximum total bytes		  80833736	  32924072
	maximum total K-bytes		     80834	     32925
	maximum total M-bytes		        81	        33


                                NWChem Input Module
                                -------------------




                                     CITATION
                                     --------
                Please cite the following reference when publishing
                           results obtained with NWChem:

          E. Apra, E. J. Bylaska, W. A. de Jong, N. Govind, K. Kowalski,
       T. P. Straatsma, M. Valiev, H. J. J. van Dam, Y. Alexeev, J. Anchell,
       V. Anisimov, F. W. Aquino, R. Atta-Fynn, J. Autschbach, N. P. Bauman,
     J. C. Becca, D. E. Bernholdt, K. Bhaskaran-Nair, S. Bogatko, P. Borowski,
         J. Boschen, J. Brabec, A. Bruner, E. Cauet, Y. Chen, G. N. Chuev,
      C. J. Cramer, J. Daily, M. J. O. Deegan, T. H. Dunning Jr., M. Dupuis,
   K. G. Dyall, G. I. Fann, S. A. Fischer, A. Fonari, H. Fruchtl, L. Gagliardi,
      J. Garza, N. Gawande, S. Ghosh, K. Glaesemann, A. W. Gotz, J. Hammond,
       V. Helms, E. D. Hermes, K. Hirao, S. Hirata, M. Jacquelin, L. Jensen,
   B. G. Johnson, H. Jonsson, R. A. Kendall, M. Klemm, R. Kobayashi, V. Konkov,
      S. Krishnamoorthy, M. Krishnan, Z. Lin, R. D. Lins, R. J. Littlefield,
      A. J. Logsdail, K. Lopata, W. Ma, A. V. Marenich, J. Martin del Campo,
   D. Mejia-Rodriguez, J. E. Moore, J. M. Mullin, T. Nakajima, D. R. Nascimento,
    J. A. Nichols, P. J. Nichols, J. Nieplocha, A. Otero-de-la-Roza, B. Palmer,
    A. Panyala, T. Pirojsirikul, B. Peng, R. Peverati, J. Pittner, L. Pollack,
   R. M. Richard, P. Sadayappan, G. C. Schatz, W. A. Shelton, D. W. Silverstein,
   D. M. A. Smith, T. A. Soares, D. Song, M. Swart, H. L. Taylor, G. S. Thomas,
            V. Tipparaju, D. G. Truhlar, K. Tsemekhman, T. Van Voorhis,
      A. Vazquez-Mayagoitia, P. Verma, O. Villa, A. Vishnu, K. D. Vogiatzis,
        D. Wang, J. H. Weare, M. J. Williamson, T. L. Windus, K. Wolinski,
        A. T. Wong, Q. Wu, C. Yang, Q. Yu, M. Zacharias, Z. Zhang, Y. Zhao,
                                and R. J. Harrison
                        "NWChem: Past, present, and future
                         J. Chem. Phys. 152, 184102 (2020)
                               doi:10.1063/5.0004997

                                      AUTHORS
                                      -------
  E. Apra, E. J. Bylaska, N. Govind, K. Kowalski, M. Valiev, D. Mejia-Rodriguez,
       A. Kunitsa, N. P. Bauman, A. Panyala, W. A. de Jong, T. P. Straatsma,
   H. J. J. van Dam, D. Wang, T. L. Windus, J. Hammond, J. Autschbach, A. Woods,
    K. Bhaskaran-Nair, J. Brabec, K. Lopata, S. A. Fischer, S. Krishnamoorthy,
     M. Jacquelin, W. Ma, M. Klemm, O. Villa, Y. Chen, V. Anisimov, F. Aquino,
     S. Hirata, M. T. Hackler, E. Hermes, L. Jensen, J. E. Moore, J. C. Becca,
      V. Konjkov, T. Risthaus, M. Malagoli, A. Marenich, A. Otero-de-la-Roza,
        J. Mullin, P. Nichols, R. Peverati, J. Pittner, Y. Zhao, P.-D. Fan,
        A. Fonari, M. J. Williamson, R. J. Harrison, J. R. Rehr, M. Dupuis,
     D. Silverstein, D. M. A. Smith, J. Nieplocha, V. Tipparaju, M. Krishnan,
     B. E. Van Kuiken, A. Vazquez-Mayagoitia, M. Swart, Q. Wu, T. Van Voorhis,
     A. A. Auer, M. Nooijen, L. D. Crosby, E. Brown, G. Cisneros, G. I. Fann,
   H. Fruchtl, J. Garza, K. Hirao, R. A. Kendall, J. A. Nichols, K. Tsemekhman,
    K. Wolinski, J. Anchell, D. E. Bernholdt, P. Borowski, T. Clark, D. Clerc,
   H. Dachsel, M. J. O. Deegan, K. Dyall, D. Elwood, E. Glendening, M. Gutowski,
   A. C. Hess, J. Jaffe, B. G. Johnson, J. Ju, R. Kobayashi, R. Kutteh, Z. Lin,
   R. Littlefield, X. Long, B. Meng, T. Nakajima, S. Niu, L. Pollack, M. Rosing,
   K. Glaesemann, G. Sandrone, M. Stave, H. Taylor, G. Thomas, J. H. van Lenthe,
                               A. T. Wong, Z. Zhang.

 Total times  cpu:     3798.4s     wall:     1719.2s
