

============================== echo of input deck ==============================
start CH3Cl_gradient
title "CH3Cl gradient"
memory total 2000 mb
echo

charge 0
geometry units angstrom
 C   0.000   0.000   0.000
 H   0.000   1.080   0.000
 H   1.020  -0.360   0.000
 H  -1.020  -0.360   0.000
 Cl  0.000   0.000   1.78
end

basis
    * library def2-svpd
end

dft
  xc b3lyp
  grid xfine
  iterations 200
end
task dft gradient
================================================================================






             Northwest Computational Chemistry Package (NWChem) 7.2.2
             --------------------------------------------------------


                    Environmental Molecular Sciences Laboratory
                       Pacific Northwest National Laboratory
                                Richland, WA 99352

                              Copyright (c) 1994-2022
                       Pacific Northwest National Laboratory
                            Battelle Memorial Institute

             NWChem is an open-source computational chemistry package
                        distributed under the terms of the
                      Educational Community License (ECL) 2.0
             A copy of the license is included with this distribution
                              in the LICENSE.TXT file

                                  ACKNOWLEDGMENT
                                  --------------

            This software and its documentation were developed at the
            EMSL at Pacific Northwest National Laboratory, a multiprogram
            national laboratory, operated for the U.S. Department of Energy
            by Battelle under Contract Number DE-AC05-76RL01830. Support
            for this work was provided by the Department of Energy Office
            of Biological and Environmental Research, Office of Basic
            Energy Sciences, and the Office of Advanced Scientific Computing.


           Job information
           ---------------

    hostname        = DESKTOP-B8GSJV0
    program         = nwchem
    date            = Sun Sep 21 21:55:50 2025

    compiled        = Mon_Apr_01_11:12:32_2024
    source          = /build/nwchem-qbYJLs/nwchem-7.2.2/build-openmpi
    nwchem branch   = 7.2.2
    nwchem revision = N/A
    ga revision     = N/A
    use scalapack   = T
    input           = ch3cl_gradient.nw
    prefix          = CH3Cl_gradient.
    data base       = ./CH3Cl_gradient.db
    status          = startup
    nproc           =        1
    time left       =     -1s



           Memory information
           ------------------

    heap     =   65535994 doubles =    500.0 Mbytes
    stack    =   65535999 doubles =    500.0 Mbytes
    global   =  131072000 doubles =   1000.0 Mbytes (distinct from heap & stack)
    total    =  262143993 doubles =   2000.0 Mbytes
    verify   = yes
    hardfail = no


           Directory information
           ---------------------

  0 permanent = .
  0 scratch   = .




                                NWChem Input Module
                                -------------------


                                  CH3Cl gradient
                                  --------------

 Scaling coordinates for geometry "geometry" by  1.889725989
 (inverse scale =  0.529177249)

 CS  symmetry detected

          ------
          auto-z
          ------
  Looking for out-of-plane bends
  no constraints, skipping    0.0000000000000000
  no constraints, skipping    0.0000000000000000


                             Geometry "geometry" -> ""
                             -------------------------

 Output coordinates in angstroms (scale by  1.889725989 to convert to a.u.)

  No.       Tag          Charge          X              Y              Z
 ---- ---------------- ---------- -------------- -------------- --------------
    1 C                    6.0000    -0.03034092     1.16353299     0.00000000
    2 H                    1.0000     1.04955059     1.17884072     0.00000000
    3 H                    1.0000    -0.39030476     1.15843041     1.02000000
    4 H                    1.0000    -0.39030476     1.15843041    -1.02000000
    5 Cl                  17.0000    -0.00511150    -0.61628820     0.00000000

      Atomic Mass
      -----------

      C                 12.000000
      H                  1.007825
      Cl                34.968850


 Effective nuclear repulsion energy (a.u.)      52.9522163205

            Nuclear Dipole moment (a.u.)
            ----------------------------
        X                 Y               Z
 ---------------- ---------------- ----------------
     0.0000000000     0.0000000000     0.0000000000

      Symmetry information
      --------------------

 Group name             Cs
 Group number              2
 Group order               2
 No. of unique centers     4

      Symmetry unique atoms

     1    2    3    5



                                Z-matrix (autoz)
                                --------

 Units are Angstrom for bonds and degrees for angles

      Type          Name      I     J     K     L     M      Value
      ----------- --------  ----- ----- ----- ----- ----- ----------
    1 Stretch                  1     2                       1.08000
    2 Stretch                  1     3                       1.08167
    3 Stretch                  1     4                       1.08167
    4 Stretch                  1     5                       1.78000
    5 Bend                     2     1     3               109.44003
    6 Bend                     2     1     4               109.44003
    7 Bend                     2     1     5                90.00000
    8 Bend                     3     1     4               141.11993
    9 Bend                     3     1     5                90.00000
   10 Bend                     4     1     5                90.00000


            XYZ format geometry
            -------------------
     5
 geometry
 C                    -0.03034092     1.16353299     0.00000000
 H                     1.04955059     1.17884072     0.00000000
 H                    -0.39030476     1.15843041     1.02000000
 H                    -0.39030476     1.15843041    -1.02000000
 Cl                   -0.00511150    -0.61628820     0.00000000

 ==============================================================================
                                internuclear distances
 ------------------------------------------------------------------------------
       center one      |      center two      | atomic units |  angstroms
 ------------------------------------------------------------------------------
    2 H                |   1 C                |     2.04090  |     1.08000
    3 H                |   1 C                |     2.04405  |     1.08167
    4 H                |   1 C                |     2.04405  |     1.08167
    5 Cl               |   1 C                |     3.36371  |     1.78000
 ------------------------------------------------------------------------------
                         number of included internuclear distances:          4
 ==============================================================================



 ==============================================================================
                                 internuclear angles
 ------------------------------------------------------------------------------
        center 1       |       center 2       |       center 3       |  degrees
 ------------------------------------------------------------------------------
    2 H                |   1 C                |   3 H                |   109.44
    2 H                |   1 C                |   4 H                |   109.44
    2 H                |   1 C                |   5 Cl               |    90.00
    3 H                |   1 C                |   4 H                |   141.12
    3 H                |   1 C                |   5 Cl               |    90.00
    4 H                |   1 C                |   5 Cl               |    90.00
 ------------------------------------------------------------------------------
                            number of included internuclear angles:          6
 ==============================================================================





 Summary of "ao basis" -> "" (cartesian)
 ------------------------------------------------------------------------------
       Tag                 Description            Shells   Functions and Types
 ---------------- ------------------------------  ------  ---------------------
 *                         def2-svpd                  on all atoms



                                 NWChem DFT Module
                                 -----------------


                                  CH3Cl gradient


                      Basis "ao basis" -> "ao basis" (cartesian)
                      -----
  C (Carbon)
  ----------
            Exponent  Coefficients
       -------------- ---------------------------------------------------------
  1 S  1.23840169E+03  0.005457
  1 S  1.86290050E+02  0.040638
  1 S  4.22511763E+01  0.180256
  1 S  1.16765579E+01  0.463151
  1 S  3.59305065E+00  0.440872

  2 S  4.02451474E-01  1.000000

  3 S  1.30901827E-01  1.000000

  4 S  6.70535403E-02  1.000000

  5 P  9.46809706E+00  0.038388
  5 P  2.01035451E+00  0.211170
  5 P  5.47710047E-01  0.513282

  6 P  1.52686138E-01  1.000000

  7 D  8.00000000E-01  1.000000

  8 D  1.17131851E-01  1.000000

  H (Hydrogen)
  ------------
            Exponent  Coefficients
       -------------- ---------------------------------------------------------
  1 S  1.30107010E+01  0.019682
  1 S  1.96225720E+00  0.137965
  1 S  4.44537960E-01  0.478319

  2 S  1.21949620E-01  1.000000

  3 P  8.00000000E-01  1.000000

  4 P  1.17040991E-01  1.000000

  Cl (Chlorine)
  -------------
            Exponent  Coefficients
       -------------- ---------------------------------------------------------
  1 S  1.04498276E+04  0.001971
  1 S  1.57173652E+03  0.014755
  1 S  3.57120655E+02  0.066679
  1 S  1.00251859E+02  0.172289
  1 S  3.08127276E+01  0.158838

  2 S  5.19237894E+01 -0.100093
  2 S  5.70457610E+00  0.608418
  2 S  2.35083768E+00  0.543522

  3 S  4.46051247E-01  1.000000

  4 S  1.68488562E-01  1.000000

  5 S  5.53442294E-02  1.000000

  6 P  3.07667906E+02 -0.008780
  6 P  7.21020155E+01 -0.063563
  6 P  2.25326803E+01 -0.240164
  6 P  7.89917654E+00 -0.477989
  6 P  2.87672683E+00 -0.385159

  7 P  7.74593640E-01  1.000000

  8 P  2.10376997E-01  1.000000

  9 P  5.00462711E-02  1.000000

 10 D  6.50000000E-01  1.000000

 11 D  1.22848034E-01  1.000000



 Summary of "ao basis" -> "ao basis" (cartesian)
 ------------------------------------------------------------------------------
       Tag                 Description            Shells   Functions and Types
 ---------------- ------------------------------  ------  ---------------------
 C                         def2-svpd                 8       22   4s2p2d
 H                         def2-svpd                 4        8   2s2p
 Cl                        def2-svpd                11       29   5s4p2d




 Summary of "ao basis" -> "ao basis" (cartesian)
 ------------------------------------------------------------------------------
       Tag                 Description            Shells   Functions and Types
 ---------------- ------------------------------  ------  ---------------------
 C                         def2-svpd                 8       22   4s2p2d
 H                         def2-svpd                 4        8   2s2p
 Cl                        def2-svpd                11       29   5s4p2d


      Symmetry analysis of basis
      --------------------------

        a'         51
        a"         24

  Caching 1-el integrals

            General Information
            -------------------
          SCF calculation type: DFT
          Wavefunction type:  closed shell.
          No. of atoms     :     5
          No. of electrons :    26
           Alpha electrons :    13
            Beta electrons :    13
          Charge           :     0
          Spin multiplicity:     1
          Use of symmetry is: on ; symmetry adaption is: on
          Maximum number of iterations: 200
          AO basis - number of functions:    75
                     number of shells:    31
          Convergence on energy requested:  1.00D-06
          Convergence on density requested:  1.00D-05
          Convergence on gradient requested:  5.00D-04

              XC Information
              --------------
                         B3LYP Method XC Potential
                     Hartree-Fock (Exact) Exchange  0.200
                        Slater Exchange Functional  0.800 local
                    Becke 1988 Exchange Functional  0.720 non-local
              Lee-Yang-Parr Correlation Functional  0.810
                  VWN I RPA Correlation Functional  0.190 local

             Grid Information
             ----------------
          Grid used for XC integration:  xfine
          Radial quadrature: Mura-Knowles
          Angular quadrature: Lebedev.
          Tag              B.-S. Rad. Rad. Pts. Rad. Cut. Ang. Pts.
          ---              ---------- --------- --------- ---------
          C                   0.70      100          11.0      1454
          H                   0.35      100          10.0      1202
          Cl                  1.00      125          10.0      1454
          Grid pruning is: on
          Number of quadrature shells:   425
          Spatial weights used:  Erf1

          Convergence Information
          -----------------------
          Convergence aids based upon iterative change in
          total energy or number of iterations.
          Levelshifting, if invoked, occurs when the
          HOMO/LUMO gap drops below (HL_TOL):  1.00D-02
          DIIS, if invoked, will attempt to extrapolate
          using up to (NFOCK): 10 stored Fock matrices.

                    Damping( 0%)  Levelshifting(0.5)       DIIS
                  --------------- ------------------- ---------------
          dE  on:    start            ASAP                start
          dE off:    2 iters        200 iters           200 iters


      Screening Tolerance Information
      -------------------------------
          Density screening/tol_rho:  1.00D-10
          AO Gaussian exp screening on grid/accAOfunc:  14
          CD Gaussian exp screening on grid/accCDfunc:  20
          XC Gaussian exp screening on grid/accXCfunc:  20
          Schwarz screening/accCoul:  1.00D-08


      Superposition of Atomic Density Guess
      -------------------------------------

 Sum of atomic energies:        -498.45248681

      Non-variational initial energy
      ------------------------------

 Total energy =    -499.314808
 1-e energy   =    -791.302369
 2-e energy   =     239.035345
 HOMO         =      -0.359385
 LUMO         =       0.039521


      Symmetry analysis of molecular orbitals - initial
      -------------------------------------------------

  Numbering of irreducible representations:

     1 a'          2 a"

  Orbital symmetries:

     1 a'          2 a'          3 a'          4 a'          5 a"
     6 a'          7 a'          8 a'          9 a"         10 a'
    11 a'         12 a"         13 a'         14 a'         15 a'
    16 a'         17 a"         18 a'         19 a'         20 a'
    21 a"         22 a'         23 a"

  WARNING: movecs_in_org=atomic not equal to movecs_in=./CH3Cl_gradient.movecs
   Time after variat. SCF:      0.6
   Time prior to 1st pass:      0.6

 Integral file          = ./CH3Cl_gradient.aoints.0
 Record size in doubles =    65536    No. of integs per rec  =    43688
 Max. records in memory =       85    Max. records in file   =  1849949
 No. of bits per label  =        8    No. of bits per value  =       64


 #quartets = 8.417D+04 #integrals = 2.232D+06 #direct =  0.0% #cached =100.0%


 Grid_pts file          = ./CH3Cl_gradient.gridpts.0
 Record size in doubles =  12289        No. of grid_pts per rec  =   3070
 Max. records in memory =    223        Max. recs in file   =   9865598


           Memory utilization after 1st SCF pass:
           Heap Space remaining (MW):       57.22            57222018
          Stack Space remaining (MW):       65.54            65535452

   convergence    iter        energy       DeltaE   RMS-Dens  Diis-err    time
 ---------------- ----- ----------------- --------- --------- ---------  ------
 d= 0,ls=0.0,diis     1   -499.8880442045 -5.53D+02  3.39D-02  3.70D-01    11.9
 d= 0,ls=0.0,diis     2   -499.8851720432  2.87D-03  8.74D-03  2.60D-01    19.1
 d= 0,ls=0.0,diis     3   -499.9138124499 -2.86D-02  2.72D-03  4.37D-02    32.6
 d= 0,ls=0.0,diis     4   -499.9196050845 -5.79D-03  5.55D-04  3.67D-04    45.4
 d= 0,ls=0.0,diis     5   -499.9196513254 -4.62D-05  9.34D-05  1.38D-05    57.9
  Resetting Diis
 d= 0,ls=0.0,diis     6   -499.9196529789 -1.65D-06  2.04D-05  9.08D-07    69.4
 d= 0,ls=0.0,diis     7   -499.9196530909 -1.12D-07  6.80D-06  1.06D-08    80.1


         Total DFT energy =     -499.919653090861
      One electron energy =     -793.027669127065
           Coulomb energy =      274.923399515853
    Exchange-Corr. energy =      -34.767599800198
 Nuclear repulsion energy =       52.952216320549

 Numeric. integr. density =       26.000000016203

     Total iterative time =     79.5s



                  Occupations of the irreducible representations
                  ----------------------------------------------

                     irrep           alpha         beta
                     --------     --------     --------
                     a'               10.0         10.0
                     a"                3.0          3.0


                       DFT Final Molecular Orbital Analysis
                       ------------------------------------

 Vector    1  Occ=2.000000D+00  E=-1.015236D+02  Symmetry=a'
              MO Center= -5.1D-03, -6.2D-01,  1.3D-19, r^2= 3.2D-03
   Bfn.  Coefficient  Atom+Function         Bfn.  Coefficient  Atom+Function
  ----- ------------  ---------------      ----- ------------  ---------------
    47      0.993385  5 Cl s                 48      0.030522  5 Cl s
    49     -0.025466  5 Cl s

 Vector    2  Occ=2.000000D+00  E=-1.025367D+01  Symmetry=a'
              MO Center= -3.0D-02,  1.2D+00,  1.9D-17, r^2= 2.8D-02
   Bfn.  Coefficient  Atom+Function         Bfn.  Coefficient  Atom+Function
  ----- ------------  ---------------      ----- ------------  ---------------
     1      0.987253  1 C  s                  3     -0.086700  1 C  s
     2      0.063633  1 C  s                  4     -0.047956  1 C  s
    32      0.027822  3 H  s                 40      0.027822  4 H  s

 Vector    3  Occ=2.000000D+00  E=-9.457121D+00  Symmetry=a'
              MO Center= -5.1D-03, -6.1D-01,  2.8D-17, r^2= 6.6D-02
   Bfn.  Coefficient  Atom+Function         Bfn.  Coefficient  Atom+Function
  ----- ------------  ---------------      ----- ------------  ---------------
    48      1.013466  5 Cl s                 47     -0.311062  5 Cl s
    49      0.071522  5 Cl s

 Vector    4  Occ=2.000000D+00  E=-7.226999D+00  Symmetry=a'
              MO Center= -5.1D-03, -6.2D-01,  1.8D-17, r^2= 5.8D-02
   Bfn.  Coefficient  Atom+Function         Bfn.  Coefficient  Atom+Function
  ----- ------------  ---------------      ----- ------------  ---------------
    53      0.980156  5 Cl py                56     -0.054059  5 Cl py
     3     -0.029367  1 C  s

 Vector    5  Occ=2.000000D+00  E=-7.217292D+00  Symmetry=a"
              MO Center= -5.1D-03, -6.2D-01,  5.9D-17, r^2= 5.8D-02
   Bfn.  Coefficient  Atom+Function         Bfn.  Coefficient  Atom+Function
  ----- ------------  ---------------      ----- ------------  ---------------
    54      0.980943  5 Cl pz                57     -0.051344  5 Cl pz

 Vector    6  Occ=2.000000D+00  E=-7.217163D+00  Symmetry=a'
              MO Center= -5.1D-03, -6.2D-01, -1.3D-16, r^2= 5.8D-02
   Bfn.  Coefficient  Atom+Function         Bfn.  Coefficient  Atom+Function
  ----- ------------  ---------------      ----- ------------  ---------------
    52      0.980869  5 Cl px                55     -0.051242  5 Cl px
    24     -0.026204  2 H  s

 Vector    7  Occ=2.000000D+00  E=-8.753186D-01  Symmetry=a'
              MO Center=  5.4D-03,  7.1D-02, -1.9D-16, r^2= 1.1D+00
   Bfn.  Coefficient  Atom+Function         Bfn.  Coefficient  Atom+Function
  ----- ------------  ---------------      ----- ------------  ---------------
    49      0.558893  5 Cl s                  3      0.550967  1 C  s
    48     -0.414531  5 Cl s                  2      0.286610  1 C  s
    50      0.271470  5 Cl s                 32     -0.267827  3 H  s
    40     -0.267827  4 H  s                  4     -0.190176  1 C  s
    22      0.158884  1 C  dzz                1     -0.142662  1 C  s

 Vector    8  Occ=2.000000D+00  E=-6.669476D-01  Symmetry=a'
              MO Center=  3.9D-02,  3.9D-01, -2.7D-15, r^2= 2.0D+00
   Bfn.  Coefficient  Atom+Function         Bfn.  Coefficient  Atom+Function
  ----- ------------  ---------------      ----- ------------  ---------------
     3      0.926307  1 C  s                 49     -0.495078  5 Cl s
     2      0.415102  1 C  s                 32     -0.405978  3 H  s
    40     -0.405978  4 H  s                 48      0.345073  5 Cl s
     4     -0.271418  1 C  s                 22      0.256377  1 C  dzz
    50     -0.221474  5 Cl s                  1     -0.196186  1 C  s

 Vector    9  Occ=2.000000D+00  E=-5.087664D-01  Symmetry=a"
              MO Center= -1.8D-01,  9.9D-01,  2.6D-15, r^2= 1.4D+00
   Bfn.  Coefficient  Atom+Function         Bfn.  Coefficient  Atom+Function
  ----- ------------  ---------------      ----- ------------  ---------------
     7      0.433971  1 C  pz                31      0.313393  3 H  s
    39     -0.313393  4 H  s                 32      0.188628  3 H  s
    40     -0.188628  4 H  s                 19      0.161172  1 C  dxz
    60      0.156789  5 Cl pz                57      0.127562  5 Cl pz
    54      0.076397  5 Cl pz                68      0.064920  5 Cl dyz

 Vector   10  Occ=2.000000D+00  E=-4.606894D-01  Symmetry=a'
              MO Center=  2.0D-01,  8.8D-01,  1.2D-17, r^2= 1.5D+00
   Bfn.  Coefficient  Atom+Function         Bfn.  Coefficient  Atom+Function
  ----- ------------  ---------------      ----- ------------  ---------------
     5      0.424865  1 C  px                 3      0.378195  1 C  s
    23      0.345459  2 H  s                 32     -0.237564  3 H  s
    40     -0.237564  4 H  s                 58      0.205354  5 Cl px
    55      0.166945  5 Cl px                 8      0.163478  1 C  px
    31     -0.154566  3 H  s                 39     -0.154566  4 H  s

 Vector   11  Occ=2.000000D+00  E=-3.862711D-01  Symmetry=a'
              MO Center= -3.4D-02,  1.7D-01, -7.0D-17, r^2= 2.2D+00
   Bfn.  Coefficient  Atom+Function         Bfn.  Coefficient  Atom+Function
  ----- ------------  ---------------      ----- ------------  ---------------
    59      0.449199  5 Cl py                56      0.380612  5 Cl py
     6     -0.372431  1 C  py                 3     -0.256605  1 C  s
    53      0.219554  5 Cl py                 9     -0.154782  1 C  py
     4     -0.113154  1 C  s                  2     -0.108980  1 C  s
    31     -0.101382  3 H  s                 39     -0.101382  4 H  s

 Vector   12  Occ=2.000000D+00  E=-2.974201D-01  Symmetry=a"
              MO Center= -2.2D-02, -4.3D-01, -4.9D-15, r^2= 1.6D+00
   Bfn.  Coefficient  Atom+Function         Bfn.  Coefficient  Atom+Function
  ----- ------------  ---------------      ----- ------------  ---------------
    60      0.596938  5 Cl pz                57      0.471096  5 Cl pz
    54      0.269255  5 Cl pz                 7     -0.172027  1 C  pz
    32     -0.145709  3 H  s                 40      0.145709  4 H  s
    31     -0.134499  3 H  s                 39      0.134499  4 H  s
    63      0.092939  5 Cl pz                19     -0.065076  1 C  dxz

 Vector   13  Occ=2.000000D+00  E=-2.901558D-01  Symmetry=a'
              MO Center=  3.1D-02, -3.4D-01,  5.3D-15, r^2= 1.7D+00
   Bfn.  Coefficient  Atom+Function         Bfn.  Coefficient  Atom+Function
  ----- ------------  ---------------      ----- ------------  ---------------
    58      0.580911  5 Cl px                55      0.459341  5 Cl px
    52      0.261858  5 Cl px                 5     -0.205314  1 C  px
    23     -0.189205  2 H  s                 32      0.157293  3 H  s
    40      0.157293  4 H  s                  3     -0.137411  1 C  s
    24     -0.108694  2 H  s                 61      0.091389  5 Cl px

 Vector   14  Occ=0.000000D+00  E=-2.322411D-03  Symmetry=a'
              MO Center= -2.6D-02,  4.7D-01, -6.1D-16, r^2= 5.6D+00
   Bfn.  Coefficient  Atom+Function         Bfn.  Coefficient  Atom+Function
  ----- ------------  ---------------      ----- ------------  ---------------
     3      5.790583  1 C  s                  4     -3.475831  1 C  s
    32     -1.816464  3 H  s                 40     -1.816464  4 H  s
    51      1.497450  5 Cl s                 22      1.304358  1 C  dzz
    24     -1.134371  2 H  s                 17      0.872007  1 C  dxx
    50     -0.729034  5 Cl s                 20      0.605593  1 C  dyy

 Vector   15  Occ=0.000000D+00  E= 4.135798D-03  Symmetry=a'
              MO Center=  5.4D-02,  7.4D-01,  3.5D-14, r^2= 7.0D+00
   Bfn.  Coefficient  Atom+Function         Bfn.  Coefficient  Atom+Function
  ----- ------------  ---------------      ----- ------------  ---------------
     3      4.017881  1 C  s                  4     -2.977362  1 C  s
    51     -1.588799  5 Cl s                 32     -1.156298  3 H  s
    40     -1.156298  4 H  s                 22      0.939384  1 C  dzz
    24     -0.777630  2 H  s                 17      0.738776  1 C  dxx
    20      0.683740  1 C  dyy               50      0.526895  5 Cl s

 Vector   16  Occ=0.000000D+00  E= 6.317239D-02  Symmetry=a"
              MO Center= -2.7D-01,  9.2D-02, -2.9D-14, r^2= 9.0D+00
   Bfn.  Coefficient  Atom+Function         Bfn.  Coefficient  Atom+Function
  ----- ------------  ---------------      ----- ------------  ---------------
    32      1.212958  3 H  s                 40     -1.212958  4 H  s
    63     -1.068259  5 Cl pz                38     -0.655709  3 H  pz
    46     -0.655709  4 H  pz                10     -0.384259  1 C  pz
    19      0.373730  1 C  dxz               74     -0.340471  5 Cl dyz
    37     -0.250166  3 H  py                45      0.250166  4 H  py

 Vector   17  Occ=0.000000D+00  E= 6.464719D-02  Symmetry=a'
              MO Center=  9.1D-01, -7.3D-04,  3.0D-15, r^2= 7.3D+00
   Bfn.  Coefficient  Atom+Function         Bfn.  Coefficient  Atom+Function
  ----- ------------  ---------------      ----- ------------  ---------------
     3      1.491079  1 C  s                  4     -1.289495  1 C  s
    32     -1.038132  3 H  s                 40     -1.038132  4 H  s
    61     -0.761599  5 Cl px                24      0.754177  2 H  s
    28     -0.591343  2 H  px                62      0.578542  5 Cl py
    38      0.547594  3 H  pz                46     -0.547594  4 H  pz

 Vector   18  Occ=0.000000D+00  E= 7.335657D-02  Symmetry=a'
              MO Center= -6.5D-01, -9.5D-01, -3.8D-16, r^2= 8.9D+00
   Bfn.  Coefficient  Atom+Function         Bfn.  Coefficient  Atom+Function
  ----- ------------  ---------------      ----- ------------  ---------------
     3      3.935445  1 C  s                  4     -3.514662  1 C  s
    24     -1.667568  2 H  s                 62      1.364776  5 Cl py
    22      0.774978  1 C  dzz               32     -0.772183  3 H  s
    40     -0.772183  4 H  s                 61      0.709736  5 Cl px
    17      0.699233  1 C  dxx               28      0.693133  2 H  px

 Vector   19  Occ=0.000000D+00  E= 9.149589D-02  Symmetry=a'
              MO Center= -4.5D-02,  1.3D+00, -8.3D-16, r^2= 8.1D+00
   Bfn.  Coefficient  Atom+Function         Bfn.  Coefficient  Atom+Function
  ----- ------------  ---------------      ----- ------------  ---------------
     4    -10.383656  1 C  s                  3     10.035847  1 C  s
    51      4.960434  5 Cl s                 32     -2.646537  3 H  s
    40     -2.646537  4 H  s                 22      2.372594  1 C  dzz
    17      1.804426  1 C  dxx               20      1.712184  1 C  dyy
    24     -1.606812  2 H  s                 62      1.563171  5 Cl py

 Vector   20  Occ=0.000000D+00  E= 9.689807D-02  Symmetry=a'
              MO Center= -2.4D-01, -4.3D-03,  1.9D-14, r^2= 7.3D+00
   Bfn.  Coefficient  Atom+Function         Bfn.  Coefficient  Atom+Function
  ----- ------------  ---------------      ----- ------------  ---------------
    62     -1.246457  5 Cl py                 4      1.154388  1 C  s
    51     -0.902101  5 Cl s                  3      0.887489  1 C  s
    24     -0.641787  2 H  s                 61      0.586202  5 Cl px
    38      0.378558  3 H  pz                46     -0.378558  4 H  pz
    73     -0.273163  5 Cl dyy               18      0.237592  1 C  dxy

 Vector   21  Occ=0.000000D+00  E= 1.172375D-01  Symmetry=a"
              MO Center=  2.3D-01,  7.0D-01, -2.5D-14, r^2= 5.4D+00
   Bfn.  Coefficient  Atom+Function         Bfn.  Coefficient  Atom+Function
  ----- ------------  ---------------      ----- ------------  ---------------
    19      1.698076  1 C  dxz               32      1.181183  3 H  s
    40     -1.181183  4 H  s                 30     -1.049338  2 H  pz
    36     -0.830299  3 H  px                44      0.830299  4 H  px
    72     -0.489442  5 Cl dxz               63     -0.327011  5 Cl pz
     7     -0.141887  1 C  pz                66     -0.137098  5 Cl dxz

 Vector   22  Occ=0.000000D+00  E= 1.602551D-01  Symmetry=a"
              MO Center= -3.8D-02,  2.8D-01, -5.7D-14, r^2= 8.3D+00
   Bfn.  Coefficient  Atom+Function         Bfn.  Coefficient  Atom+Function
  ----- ------------  ---------------      ----- ------------  ---------------
    19      1.023759  1 C  dxz               30     -0.993555  2 H  pz
    63      0.948232  5 Cl pz                38     -0.871362  3 H  pz
    46     -0.871362  4 H  pz                32      0.563708  3 H  s
    40     -0.563708  4 H  s                 60     -0.419226  5 Cl pz
    10      0.268489  1 C  pz                74     -0.269388  5 Cl dyz

 Vector   23  Occ=0.000000D+00  E= 1.713028D-01  Symmetry=a'
              MO Center=  3.0D-01,  4.6D-01, -5.9D-15, r^2= 8.1D+00
   Bfn.  Coefficient  Atom+Function         Bfn.  Coefficient  Atom+Function
  ----- ------------  ---------------      ----- ------------  ---------------
     3      4.387573  1 C  s                 28      1.301469  2 H  px
    51     -1.267734  5 Cl s                 32     -1.259390  3 H  s
    40     -1.259390  4 H  s                  4     -1.008179  1 C  s
    22      0.969686  1 C  dzz               24     -0.797336  2 H  s
    61     -0.795154  5 Cl px                62     -0.723728  5 Cl py

 Vector   24  Occ=0.000000D+00  E= 1.964568D-01  Symmetry=a'
              MO Center= -1.0D-01,  8.0D-02,  1.9D-13, r^2= 9.4D+00
   Bfn.  Coefficient  Atom+Function         Bfn.  Coefficient  Atom+Function
  ----- ------------  ---------------      ----- ------------  ---------------
     3     21.099078  1 C  s                 32     -8.295439  3 H  s
    40     -8.295439  4 H  s                 51     -5.091531  5 Cl s
    22      4.807804  1 C  dzz               24     -4.802831  2 H  s
    17      2.635507  1 C  dxx               62     -2.570648  5 Cl py
     4     -2.396935  1 C  s                 38      2.152707  3 H  pz

 Vector   25  Occ=0.000000D+00  E= 2.262927D-01  Symmetry=a"
              MO Center= -2.7D-01,  5.4D-01, -7.4D-14, r^2= 5.5D+00
   Bfn.  Coefficient  Atom+Function         Bfn.  Coefficient  Atom+Function
  ----- ------------  ---------------      ----- ------------  ---------------
    32      1.959547  3 H  s                 40     -1.959547  4 H  s
    19      1.222680  1 C  dxz               37      0.910206  3 H  py
    45     -0.910206  4 H  py                38     -0.888942  3 H  pz
    46     -0.888942  4 H  pz                74     -0.848744  5 Cl dyz
    10     -0.718435  1 C  pz                30     -0.624026  2 H  pz

 Vector   26  Occ=0.000000D+00  E= 2.374565D-01  Symmetry=a'
              MO Center=  2.9D-01,  3.0D-01, -3.8D-15, r^2= 5.2D+00
   Bfn.  Coefficient  Atom+Function         Bfn.  Coefficient  Atom+Function
  ----- ------------  ---------------      ----- ------------  ---------------
     3      5.464671  1 C  s                 32     -3.415181  3 H  s
    40     -3.415181  4 H  s                 22      1.480761  1 C  dzz
     4     -1.078342  1 C  s                 71     -1.001373  5 Cl dxy
    38      0.793246  3 H  pz                46     -0.793246  4 H  pz
    36     -0.785910  3 H  px                44     -0.785910  4 H  px

 Vector   27  Occ=0.000000D+00  E= 2.640464D-01  Symmetry=a'
              MO Center= -1.7D-01,  6.6D-02, -5.2D-15, r^2= 5.2D+00
   Bfn.  Coefficient  Atom+Function         Bfn.  Coefficient  Atom+Function
  ----- ------------  ---------------      ----- ------------  ---------------
     3      3.333600  1 C  s                  4     -1.970891  1 C  s
    32     -1.650131  3 H  s                 40     -1.650131  4 H  s
    51      1.386030  5 Cl s                 22      1.020972  1 C  dzz
    75     -0.948466  5 Cl dzz               18      0.924355  1 C  dxy
    38      0.530453  3 H  pz                46     -0.530453  4 H  pz

 Vector   28  Occ=0.000000D+00  E= 2.714470D-01  Symmetry=a"
              MO Center=  1.5D-01,  1.4D-02, -8.4D-15, r^2= 5.3D+00
   Bfn.  Coefficient  Atom+Function         Bfn.  Coefficient  Atom+Function
  ----- ------------  ---------------      ----- ------------  ---------------
    72      1.562880  5 Cl dxz               21     -1.091250  1 C  dyz
    30     -0.781995  2 H  pz                19      0.537063  1 C  dxz
    36     -0.492638  3 H  px                44      0.492638  4 H  px
    37      0.447684  3 H  py                45     -0.447684  4 H  py
    10      0.360093  1 C  pz                66      0.284355  5 Cl dxz

 Vector   29  Occ=0.000000D+00  E= 2.724580D-01  Symmetry=a'
              MO Center= -2.1D-01,  8.3D-01,  6.4D-13, r^2= 7.8D+00
   Bfn.  Coefficient  Atom+Function         Bfn.  Coefficient  Atom+Function
  ----- ------------  ---------------      ----- ------------  ---------------
     3     31.089013  1 C  s                 32    -12.829609  3 H  s
    40    -12.829609  4 H  s                  4     -8.700582  1 C  s
    24     -6.663942  2 H  s                 22      5.623201  1 C  dzz
    51      4.111276  5 Cl s                 38      3.503611  3 H  pz
    46     -3.503611  4 H  pz                17      2.969548  1 C  dxx

 Vector   30  Occ=0.000000D+00  E= 3.204679D-01  Symmetry=a'
              MO Center=  6.6D-01,  8.1D-01, -1.1D-12, r^2= 6.6D+00
   Bfn.  Coefficient  Atom+Function         Bfn.  Coefficient  Atom+Function
  ----- ------------  ---------------      ----- ------------  ---------------
     3      4.432467  1 C  s                 24      4.064655  2 H  s
    32     -3.585482  3 H  s                 40     -3.585482  4 H  s
     8     -2.805642  1 C  px                 4     -2.659289  1 C  s
    38      2.107421  3 H  pz                46     -2.107421  4 H  pz
    28     -2.067305  2 H  px                51     -1.609748  5 Cl s

 Vector   31  Occ=0.000000D+00  E= 3.219047D-01  Symmetry=a"
              MO Center= -1.8D-01,  9.7D-01,  9.4D-13, r^2= 6.2D+00
   Bfn.  Coefficient  Atom+Function         Bfn.  Coefficient  Atom+Function
  ----- ------------  ---------------      ----- ------------  ---------------
    19      2.224241  1 C  dxz               36     -1.681545  3 H  px
    44      1.681545  4 H  px                38     -0.913745  3 H  pz
    46     -0.913745  4 H  pz                74      0.856395  5 Cl dyz
    32      0.694692  3 H  s                 40     -0.694692  4 H  s
    30      0.549778  2 H  pz                37      0.477050  3 H  py

 Vector   32  Occ=0.000000D+00  E= 3.310287D-01  Symmetry=a'
              MO Center= -8.7D-02,  5.1D-01,  1.4D-13, r^2= 9.0D+00
   Bfn.  Coefficient  Atom+Function         Bfn.  Coefficient  Atom+Function
  ----- ------------  ---------------      ----- ------------  ---------------
     3     15.341321  1 C  s                  4    -10.361797  1 C  s
    32     -4.564433  3 H  s                 40     -4.564433  4 H  s
    22      3.234200  1 C  dzz               20      2.932611  1 C  dyy
    24     -2.690451  2 H  s                 28      1.814276  2 H  px
    62      1.597120  5 Cl py                36     -1.485461  3 H  px

 Vector   33  Occ=0.000000D+00  E= 3.483797D-01  Symmetry=a"
              MO Center= -1.5D-01,  3.6D-01, -9.6D-14, r^2= 7.2D+00
   Bfn.  Coefficient  Atom+Function         Bfn.  Coefficient  Atom+Function
  ----- ------------  ---------------      ----- ------------  ---------------
    32      4.079332  3 H  s                 40     -4.079332  4 H  s
    10     -2.713674  1 C  pz                74     -1.990974  5 Cl dyz
    19     -1.745431  1 C  dxz               38     -1.528652  3 H  pz
    46     -1.528652  4 H  pz                30      1.352256  2 H  pz
    37     -1.273788  3 H  py                45      1.273788  4 H  py

 Vector   34  Occ=0.000000D+00  E= 3.630924D-01  Symmetry=a'
              MO Center= -3.4D-01,  2.4D-01, -2.7D-13, r^2= 7.8D+00
   Bfn.  Coefficient  Atom+Function         Bfn.  Coefficient  Atom+Function
  ----- ------------  ---------------      ----- ------------  ---------------
     4      7.072956  1 C  s                 24      6.510982  2 H  s
     3     -6.041604  1 C  s                 17     -3.498516  1 C  dxx
    22     -2.287138  1 C  dzz               51     -1.704563  5 Cl s
    62     -1.653525  5 Cl py                73     -1.659914  5 Cl dyy
    50     -1.413314  5 Cl s                  8     -1.274862  1 C  px

 Vector   35  Occ=0.000000D+00  E= 3.666040D-01  Symmetry=a'
              MO Center= -1.8D-01,  8.3D-01, -1.6D-13, r^2= 8.7D+00
   Bfn.  Coefficient  Atom+Function         Bfn.  Coefficient  Atom+Function
  ----- ------------  ---------------      ----- ------------  ---------------
     4     11.477290  1 C  s                 51     -7.488812  5 Cl s
     3      6.697451  1 C  s                 32     -5.697506  3 H  s
    40     -5.697506  4 H  s                 24     -4.110148  2 H  s
    50      3.458217  5 Cl s                 20     -2.359387  1 C  dyy
    73      1.864097  5 Cl dyy                9      1.724028  1 C  py

 Vector   36  Occ=0.000000D+00  E= 3.879150D-01  Symmetry=a'
              MO Center=  3.3D-01, -1.4D-02,  1.6D-14, r^2= 7.4D+00
   Bfn.  Coefficient  Atom+Function         Bfn.  Coefficient  Atom+Function
  ----- ------------  ---------------      ----- ------------  ---------------
     3      2.984754  1 C  s                 71      2.475014  5 Cl dxy
     4     -1.436099  1 C  s                 28     -1.424642  2 H  px
    17      1.272808  1 C  dxx               61      1.259622  5 Cl px
    32     -1.068554  3 H  s                 40     -1.068554  4 H  s
     8     -0.998639  1 C  px                29      0.996593  2 H  py

 Vector   37  Occ=0.000000D+00  E= 3.983315D-01  Symmetry=a"
              MO Center= -3.9D-01,  6.8D-01, -6.2D-13, r^2= 6.9D+00
   Bfn.  Coefficient  Atom+Function         Bfn.  Coefficient  Atom+Function
  ----- ------------  ---------------      ----- ------------  ---------------
    32     -3.200401  3 H  s                 40      3.200401  4 H  s
    10      3.101399  1 C  pz                19      2.788980  1 C  dxz
    38      2.112877  3 H  pz                46      2.112877  4 H  pz
    36     -1.869880  3 H  px                44      1.869880  4 H  px
    74     -1.704114  5 Cl dyz               63     -0.928018  5 Cl pz

 Vector   38  Occ=0.000000D+00  E= 4.307264D-01  Symmetry=a'
              MO Center= -7.6D-02,  6.5D-01,  2.1D-15, r^2= 6.7D+00
   Bfn.  Coefficient  Atom+Function         Bfn.  Coefficient  Atom+Function
  ----- ------------  ---------------      ----- ------------  ---------------
     3      2.220542  1 C  s                 20      2.231071  1 C  dyy
    50     -1.852154  5 Cl s                  4     -1.549389  1 C  s
    37     -1.502121  3 H  py                45     -1.502121  4 H  py
     9      1.478715  1 C  py                75     -1.464634  5 Cl dzz
    32     -1.220356  3 H  s                 40     -1.220356  4 H  s

 Vector   39  Occ=0.000000D+00  E= 4.364923D-01  Symmetry=a"
              MO Center=  7.5D-01,  1.3D+00,  6.8D-13, r^2= 5.7D+00
   Bfn.  Coefficient  Atom+Function         Bfn.  Coefficient  Atom+Function
  ----- ------------  ---------------      ----- ------------  ---------------
    19     10.841519  1 C  dxz               32     10.437749  3 H  s
    40    -10.437749  4 H  s                 30     -4.834093  2 H  pz
    10     -3.499220  1 C  pz                38     -3.343894  3 H  pz
    46     -3.343894  4 H  pz                21      2.094064  1 C  dyz
    36     -1.753285  3 H  px                44      1.753285  4 H  px

 Vector   40  Occ=0.000000D+00  E= 4.490790D-01  Symmetry=a'
              MO Center= -8.6D-02,  9.6D-01, -1.2D-12, r^2= 7.3D+00
   Bfn.  Coefficient  Atom+Function         Bfn.  Coefficient  Atom+Function
  ----- ------------  ---------------      ----- ------------  ---------------
     3     18.167164  1 C  s                 24    -13.562185  2 H  s
    28      4.440875  2 H  px                17      4.088532  1 C  dxx
     4     -3.822386  1 C  s                  8      2.586375  1 C  px
    18     -2.595448  1 C  dxy               38      2.069808  3 H  pz
    46     -2.069808  4 H  pz                29      1.954493  2 H  py

 Vector   41  Occ=0.000000D+00  E= 4.620489D-01  Symmetry=a'
              MO Center=  1.9D-01,  6.9D-01, -2.6D-13, r^2= 6.7D+00
   Bfn.  Coefficient  Atom+Function         Bfn.  Coefficient  Atom+Function
  ----- ------------  ---------------      ----- ------------  ---------------
     3     21.139897  1 C  s                 24    -13.089267  2 H  s
    18      4.659503  1 C  dxy               28      4.381465  2 H  px
    32     -4.223028  3 H  s                 40     -4.223028  4 H  s
    17      4.004795  1 C  dxx                4     -3.168841  1 C  s
    29     -2.828487  2 H  py                 8      2.291347  1 C  px

 Vector   42  Occ=0.000000D+00  E= 4.778456D-01  Symmetry=a"
              MO Center= -8.7D-02,  7.4D-01, -1.1D-13, r^2= 6.5D+00
   Bfn.  Coefficient  Atom+Function         Bfn.  Coefficient  Atom+Function
  ----- ------------  ---------------      ----- ------------  ---------------
    21      7.502300  1 C  dyz               32     -5.177176  3 H  s
    40      5.177176  4 H  s                 19     -4.001046  1 C  dxz
    37     -3.481351  3 H  py                45      3.481351  4 H  py
    10      1.885422  1 C  pz                38      1.816137  3 H  pz
    46      1.816137  4 H  pz                30      1.476341  2 H  pz

 Vector   43  Occ=0.000000D+00  E= 5.000667D-01  Symmetry=a'
              MO Center=  2.0D-01,  8.6D-01,  1.8D-12, r^2= 6.5D+00
   Bfn.  Coefficient  Atom+Function         Bfn.  Coefficient  Atom+Function
  ----- ------------  ---------------      ----- ------------  ---------------
     3     69.255961  1 C  s                 32    -36.813315  3 H  s
    40    -36.813315  4 H  s                 22     19.333033  1 C  dzz
    24    -10.824006  2 H  s                  4     -8.055585  1 C  s
    38      6.073654  3 H  pz                46     -6.073654  4 H  pz
    36     -5.678338  3 H  px                44     -5.678338  4 H  px

 Vector   44  Occ=0.000000D+00  E= 8.211907D-01  Symmetry=a"
              MO Center= -1.9D-01,  8.9D-01,  1.0D-13, r^2= 3.5D+00
   Bfn.  Coefficient  Atom+Function         Bfn.  Coefficient  Atom+Function
  ----- ------------  ---------------      ----- ------------  ---------------
    32      6.461486  3 H  s                 40     -6.461486  4 H  s
    10     -5.105269  1 C  pz                38     -1.911666  3 H  pz
    46     -1.911666  4 H  pz                36      1.180840  3 H  px
    44     -1.180840  4 H  px                 7      0.885719  1 C  pz
    19     -0.750187  1 C  dxz               31     -0.496655  3 H  s

 Vector   45  Occ=0.000000D+00  E= 8.612153D-01  Symmetry=a'
              MO Center= -1.8D-01,  4.4D-01, -3.4D-15, r^2= 3.8D+00
   Bfn.  Coefficient  Atom+Function         Bfn.  Coefficient  Atom+Function
  ----- ------------  ---------------      ----- ------------  ---------------
    24     11.071094  2 H  s                  8     -5.549870  1 C  px
     3     -4.503968  1 C  s                 32     -4.254987  3 H  s
    40     -4.254987  4 H  s                 22      3.287572  1 C  dzz
    17     -3.068782  1 C  dxx               28     -3.002576  2 H  px
    36     -1.495893  3 H  px                44     -1.495893  4 H  px

 Vector   46  Occ=0.000000D+00  E= 8.725146D-01  Symmetry=a'
              MO Center=  2.5D-01,  6.1D-01,  2.7D-14, r^2= 3.9D+00
   Bfn.  Coefficient  Atom+Function         Bfn.  Coefficient  Atom+Function
  ----- ------------  ---------------      ----- ------------  ---------------
    24      6.419066  2 H  s                  3     -5.536396  1 C  s
     8     -2.968283  1 C  px                22     -2.855334  1 C  dzz
    28     -2.333966  2 H  px                38      0.993193  3 H  pz
    46     -0.993193  4 H  pz                29     -0.761112  2 H  py
    23     -0.750399  2 H  s                 32      0.746727  3 H  s

 Vector   47  Occ=0.000000D+00  E= 8.969045D-01  Symmetry=a'
              MO Center= -3.2D-02,  6.2D-01, -2.2D-13, r^2= 4.7D+00
   Bfn.  Coefficient  Atom+Function         Bfn.  Coefficient  Atom+Function
  ----- ------------  ---------------      ----- ------------  ---------------
     3     61.104190  1 C  s                 32    -27.663416  3 H  s
    40    -27.663416  4 H  s                 24    -15.705926  2 H  s
    22     11.893122  1 C  dzz                4     -9.377209  1 C  s
    38      5.750765  3 H  pz                46     -5.750765  4 H  pz
    17      5.367592  1 C  dxx               20      4.456276  1 C  dyy

 Vector   48  Occ=0.000000D+00  E= 9.350457D-01  Symmetry=a"
              MO Center=  3.4D-02, -3.5D-01, -5.0D-15, r^2= 3.1D+00
   Bfn.  Coefficient  Atom+Function         Bfn.  Coefficient  Atom+Function
  ----- ------------  ---------------      ----- ------------  ---------------
    32      5.873475  3 H  s                 40     -5.873475  4 H  s
    19      5.100516  1 C  dxz               10     -4.318773  1 C  pz
    38     -2.092178  3 H  pz                46     -2.092178  4 H  pz
    30     -1.772540  2 H  pz                74      1.696249  5 Cl dyz
    21     -1.625997  1 C  dyz               68     -1.488449  5 Cl dyz

 Vector   49  Occ=0.000000D+00  E= 9.477961D-01  Symmetry=a'
              MO Center= -5.3D-02,  4.9D-01,  3.6D-15, r^2= 3.5D+00
   Bfn.  Coefficient  Atom+Function         Bfn.  Coefficient  Atom+Function
  ----- ------------  ---------------      ----- ------------  ---------------
     3     33.855627  1 C  s                 32    -12.900055  3 H  s
    40    -12.900055  4 H  s                 24     -7.126339  2 H  s
     4     -7.056840  1 C  s                 22      5.619836  1 C  dzz
     9     -5.401960  1 C  py                50     -5.319445  5 Cl s
    20      3.441708  1 C  dyy               38      2.838607  3 H  pz

 Vector   50  Occ=0.000000D+00  E= 9.839517D-01  Symmetry=a"
              MO Center= -2.8D-03, -5.1D-01, -1.1D-13, r^2= 1.9D+00
   Bfn.  Coefficient  Atom+Function         Bfn.  Coefficient  Atom+Function
  ----- ------------  ---------------      ----- ------------  ---------------
    66      1.728069  5 Cl dxz               10     -1.385505  1 C  pz
    72     -1.052981  5 Cl dxz               32      1.028989  3 H  s
    40     -1.028989  4 H  s                 19     -0.457327  1 C  dxz
    36      0.456675  3 H  px                44     -0.456675  4 H  px
    30      0.432190  2 H  pz                68      0.375014  5 Cl dyz

 Vector   51  Occ=0.000000D+00  E= 9.853302D-01  Symmetry=a'
              MO Center=  6.0D-02, -1.7D-01,  1.1D-13, r^2= 2.9D+00
   Bfn.  Coefficient  Atom+Function         Bfn.  Coefficient  Atom+Function
  ----- ------------  ---------------      ----- ------------  ---------------
     3     15.339570  1 C  s                 24     -7.478942  2 H  s
    32     -5.858570  3 H  s                 40     -5.858570  4 H  s
     4      2.845427  1 C  s                 51     -2.716680  5 Cl s
     8      2.101152  1 C  px                28      2.091057  2 H  px
    22      1.867681  1 C  dzz               75      1.197868  5 Cl dzz

 Vector   52  Occ=0.000000D+00  E= 1.013614D+00  Symmetry=a'
              MO Center= -1.3D-01,  6.9D-01,  3.7D-14, r^2= 4.3D+00
   Bfn.  Coefficient  Atom+Function         Bfn.  Coefficient  Atom+Function
  ----- ------------  ---------------      ----- ------------  ---------------
     3     22.866469  1 C  s                 32    -11.087417  3 H  s
    40    -11.087417  4 H  s                  4      7.354549  1 C  s
    24     -6.145561  2 H  s                 51     -4.851312  5 Cl s
    38      2.942096  3 H  pz                46     -2.942096  4 H  pz
     2     -2.023766  1 C  s                 22      1.640029  1 C  dzz

 Vector   53  Occ=0.000000D+00  E= 1.054466D+00  Symmetry=a'
              MO Center= -2.1D-01,  4.3D-01,  1.4D-15, r^2= 4.3D+00
   Bfn.  Coefficient  Atom+Function         Bfn.  Coefficient  Atom+Function
  ----- ------------  ---------------      ----- ------------  ---------------
     4      7.366933  1 C  s                 24      3.770250  2 H  s
    17     -3.720597  1 C  dxx                3     -3.320848  1 C  s
    50      2.932977  5 Cl s                 20     -2.832212  1 C  dyy
     2     -1.579778  1 C  s                 49     -1.586992  5 Cl s
     8     -1.454995  1 C  px                 9      1.138932  1 C  py

 Vector   54  Occ=0.000000D+00  E= 1.083939D+00  Symmetry=a'
              MO Center=  2.0D-01, -2.4D-01,  1.8D-14, r^2= 3.9D+00
   Bfn.  Coefficient  Atom+Function         Bfn.  Coefficient  Atom+Function
  ----- ------------  ---------------      ----- ------------  ---------------
     3     19.793204  1 C  s                 32    -12.714795  3 H  s
    40    -12.714795  4 H  s                 22      6.496267  1 C  dzz
    51     -3.826551  5 Cl s                 24     -2.482973  2 H  s
    49      2.404152  5 Cl s                 50     -2.248610  5 Cl s
    73      1.863647  5 Cl dyy                8     -1.800211  1 C  px

 Vector   55  Occ=0.000000D+00  E= 1.195663D+00  Symmetry=a"
              MO Center= -8.5D-02,  6.6D-01, -8.3D-14, r^2= 3.6D+00
   Bfn.  Coefficient  Atom+Function         Bfn.  Coefficient  Atom+Function
  ----- ------------  ---------------      ----- ------------  ---------------
    19      5.887385  1 C  dxz               32      2.168909  3 H  s
    40     -2.168909  4 H  s                 21      2.117281  1 C  dyz
    10     -2.033823  1 C  pz                36     -1.624077  3 H  px
    44      1.624077  4 H  px                30     -1.547659  2 H  pz
    60      1.543511  5 Cl pz                31      0.827594  3 H  s

 Vector   56  Occ=0.000000D+00  E= 1.199626D+00  Symmetry=a'
              MO Center=  3.3D-02, -1.5D-01,  1.3D-13, r^2= 3.1D+00
   Bfn.  Coefficient  Atom+Function         Bfn.  Coefficient  Atom+Function
  ----- ------------  ---------------      ----- ------------  ---------------
    24      8.157701  2 H  s                  3     -6.416586  1 C  s
    28     -2.776261  2 H  px                 8     -2.427577  1 C  px
    58     -1.912793  5 Cl px                18     -1.413255  1 C  dxy
    71     -1.343302  5 Cl dxy               55      1.264094  5 Cl px
    51      0.675120  5 Cl s                 32     -0.590691  3 H  s

 Vector   57  Occ=0.000000D+00  E= 1.211167D+00  Symmetry=a"
              MO Center=  5.7D-04,  2.6D-01, -6.6D-14, r^2= 3.3D+00
   Bfn.  Coefficient  Atom+Function         Bfn.  Coefficient  Atom+Function
  ----- ------------  ---------------      ----- ------------  ---------------
    32     10.147993  3 H  s                 40    -10.147993  4 H  s
    19      7.205516  1 C  dxz               10     -6.218334  1 C  pz
    38     -2.986851  3 H  pz                46     -2.986851  4 H  pz
    30     -2.160099  2 H  pz                60     -1.314506  5 Cl pz
    74     -1.112633  5 Cl dyz               57      1.012809  5 Cl pz

 Vector   58  Occ=0.000000D+00  E= 1.304391D+00  Symmetry=a'
              MO Center=  1.5D-01,  2.0D-01, -2.9D-14, r^2= 4.1D+00
   Bfn.  Coefficient  Atom+Function         Bfn.  Coefficient  Atom+Function
  ----- ------------  ---------------      ----- ------------  ---------------
     3     31.396370  1 C  s                 32    -16.197362  3 H  s
    40    -16.197362  4 H  s                 22      9.767462  1 C  dzz
    24     -8.146994  2 H  s                  4     -6.794556  1 C  s
    17      4.790358  1 C  dxx               20      3.960459  1 C  dyy
    38      2.768003  3 H  pz                46     -2.768003  4 H  pz

 Vector   59  Occ=0.000000D+00  E= 1.431515D+00  Symmetry=a"
              MO Center= -1.7D-01,  8.6D-01,  4.2D-14, r^2= 2.0D+00
   Bfn.  Coefficient  Atom+Function         Bfn.  Coefficient  Atom+Function
  ----- ------------  ---------------      ----- ------------  ---------------
    19      2.300474  1 C  dxz               32      1.233747  3 H  s
    40     -1.233747  4 H  s                 21     -1.096689  1 C  dyz
    10     -0.951920  1 C  pz                15      0.777088  1 C  dyz
    36     -0.527292  3 H  px                44      0.527292  4 H  px
    30     -0.523639  2 H  pz                34      0.507721  3 H  py

 Vector   60  Occ=0.000000D+00  E= 1.440236D+00  Symmetry=a'
              MO Center=  3.2D-01,  9.2D-01, -1.2D-14, r^2= 1.9D+00
   Bfn.  Coefficient  Atom+Function         Bfn.  Coefficient  Atom+Function
  ----- ------------  ---------------      ----- ------------  ---------------
     3      5.052718  1 C  s                 32     -1.847714  3 H  s
    40     -1.847714  4 H  s                 24     -1.260411  2 H  s
    22      1.187251  1 C  dzz                4     -1.011984  1 C  s
    12      0.769868  1 C  dxy               50     -0.766722  5 Cl s
    28      0.669916  2 H  px                26      0.651360  2 H  py

 Vector   61  Occ=0.000000D+00  E= 1.546526D+00  Symmetry=a'
              MO Center=  2.8D-02,  1.0D-01, -2.5D-14, r^2= 3.2D+00
   Bfn.  Coefficient  Atom+Function         Bfn.  Coefficient  Atom+Function
  ----- ------------  ---------------      ----- ------------  ---------------
     3     14.338292  1 C  s                 32    -10.540193  3 H  s
    40    -10.540193  4 H  s                 22      6.157348  1 C  dzz
    24     -5.298781  2 H  s                 50      5.113787  5 Cl s
    59      3.895638  5 Cl py                 4     -3.563588  1 C  s
     9      3.449270  1 C  py                17      3.273176  1 C  dxx

 Vector   62  Occ=0.000000D+00  E= 1.581094D+00  Symmetry=a"
              MO Center= -1.1D-01,  1.1D+00, -1.2D-14, r^2= 2.1D+00
   Bfn.  Coefficient  Atom+Function         Bfn.  Coefficient  Atom+Function
  ----- ------------  ---------------      ----- ------------  ---------------
    19      3.307921  1 C  dxz               30     -1.642755  2 H  pz
    32      0.974594  3 H  s                 40     -0.974594  4 H  s
    10      0.937714  1 C  pz                21     -0.744422  1 C  dyz
    13     -0.580838  1 C  dxz               33     -0.583259  3 H  px
    41      0.583259  4 H  px                36     -0.465774  3 H  px

 Vector   63  Occ=0.000000D+00  E= 1.811529D+00  Symmetry=a"
              MO Center=  4.0D-01,  1.1D+00, -4.8D-14, r^2= 1.9D+00
   Bfn.  Coefficient  Atom+Function         Bfn.  Coefficient  Atom+Function
  ----- ------------  ---------------      ----- ------------  ---------------
    10      4.943604  1 C  pz                32     -4.774560  3 H  s
    40      4.774560  4 H  s                 19     -1.593731  1 C  dxz
    38      1.455268  3 H  pz                46      1.455268  4 H  pz
    21     -0.975526  1 C  dyz               27     -0.878736  2 H  pz
    30      0.704622  2 H  pz                31     -0.697086  3 H  s

 Vector   64  Occ=0.000000D+00  E= 1.861652D+00  Symmetry=a'
              MO Center=  2.5D-02,  1.1D+00,  2.8D-14, r^2= 2.1D+00
   Bfn.  Coefficient  Atom+Function         Bfn.  Coefficient  Atom+Function
  ----- ------------  ---------------      ----- ------------  ---------------
     3      7.559393  1 C  s                 24     -6.853659  2 H  s
     8      3.785293  1 C  px                17      1.873170  1 C  dxx
    28      1.869955  2 H  px                 4     -1.044325  1 C  s
    50     -0.911036  5 Cl s                 22     -0.838865  1 C  dzz
    23     -0.794938  2 H  s                  9     -0.728685  1 C  py

 Vector   65  Occ=0.000000D+00  E= 1.921452D+00  Symmetry=a'
              MO Center= -8.7D-02,  1.0D+00, -1.3D-15, r^2= 2.0D+00
   Bfn.  Coefficient  Atom+Function         Bfn.  Coefficient  Atom+Function
  ----- ------------  ---------------      ----- ------------  ---------------
     3      3.793641  1 C  s                 32     -2.863930  3 H  s
    40     -2.863930  4 H  s                 22      1.538637  1 C  dzz
     8     -0.743547  1 C  px                34     -0.691385  3 H  py
    42     -0.691385  4 H  py                18      0.661016  1 C  dxy
     9      0.599717  1 C  py                51     -0.523801  5 Cl s

 Vector   66  Occ=0.000000D+00  E= 2.105436D+00  Symmetry=a'
              MO Center= -3.0D-01,  1.1D+00,  1.3D-14, r^2= 1.8D+00
   Bfn.  Coefficient  Atom+Function         Bfn.  Coefficient  Atom+Function
  ----- ------------  ---------------      ----- ------------  ---------------
     3     16.592376  1 C  s                 32     -9.762350  3 H  s
    40     -9.762350  4 H  s                 22      4.069075  1 C  dzz
     4     -2.720022  1 C  s                 38      1.904138  3 H  pz
    46     -1.904138  4 H  pz                17      1.612454  1 C  dxx
     8     -1.544143  1 C  px                20      1.527343  1 C  dyy

 Vector   67  Occ=0.000000D+00  E= 2.185921D+00  Symmetry=a'
              MO Center=  2.2D-01,  1.1D+00,  1.0D-14, r^2= 1.6D+00
   Bfn.  Coefficient  Atom+Function         Bfn.  Coefficient  Atom+Function
  ----- ------------  ---------------      ----- ------------  ---------------
     3     19.597902  1 C  s                 32     -7.497405  3 H  s
    40     -7.497405  4 H  s                 24     -6.389448  2 H  s
    22      3.731210  1 C  dzz               50     -2.363021  5 Cl s
     4     -2.304078  1 C  s                  9     -2.027734  1 C  py
    28      1.843804  2 H  px                20      1.462756  1 C  dyy

 Vector   68  Occ=0.000000D+00  E= 2.252752D+00  Symmetry=a'
              MO Center=  3.5D-01,  1.1D+00, -1.4D-13, r^2= 1.5D+00
   Bfn.  Coefficient  Atom+Function         Bfn.  Coefficient  Atom+Function
  ----- ------------  ---------------      ----- ------------  ---------------
     3     21.264297  1 C  s                 32     -7.838992  3 H  s
    40     -7.838992  4 H  s                 24     -6.724351  2 H  s
    22      3.282015  1 C  dzz                4     -3.150361  1 C  s
    50     -2.887084  5 Cl s                  9     -2.665437  1 C  py
    20      2.083884  1 C  dyy               17      1.951730  1 C  dxx

 Vector   69  Occ=0.000000D+00  E= 2.339108D+00  Symmetry=a"
              MO Center= -1.6D-01,  1.1D+00, -4.3D-15, r^2= 1.3D+00
   Bfn.  Coefficient  Atom+Function         Bfn.  Coefficient  Atom+Function
  ----- ------------  ---------------      ----- ------------  ---------------
    15      1.787612  1 C  dyz               34     -0.645100  3 H  py
    42      0.645100  4 H  py                21     -0.630161  1 C  dyz
    32      0.572147  3 H  s                 40     -0.572147  4 H  s
    10     -0.542210  1 C  pz                37      0.481990  3 H  py
    45     -0.481990  4 H  py                19      0.287906  1 C  dxz

 Vector   70  Occ=0.000000D+00  E= 2.396339D+00  Symmetry=a"
              MO Center=  7.0D-03,  1.1D+00,  9.4D-14, r^2= 1.8D+00
   Bfn.  Coefficient  Atom+Function         Bfn.  Coefficient  Atom+Function
  ----- ------------  ---------------      ----- ------------  ---------------
    32     -2.523732  3 H  s                 40      2.523732  4 H  s
    10      2.409309  1 C  pz                19      1.046596  1 C  dxz
     7      0.816253  1 C  pz                27     -0.757470  2 H  pz
    38      0.725245  3 H  pz                46      0.725245  4 H  pz
    33     -0.635284  3 H  px                41      0.635284  4 H  px

 Vector   71  Occ=0.000000D+00  E= 2.859905D+00  Symmetry=a"
              MO Center= -1.1D-01,  1.2D+00, -2.2D-15, r^2= 1.3D+00
   Bfn.  Coefficient  Atom+Function         Bfn.  Coefficient  Atom+Function
  ----- ------------  ---------------      ----- ------------  ---------------
    32      3.007530  3 H  s                 40     -3.007530  4 H  s
    10     -2.347335  1 C  pz                13      2.157357  1 C  dxz
    19      1.864631  1 C  dxz               31      0.948206  3 H  s
    39     -0.948206  4 H  s                 35     -0.916768  3 H  pz
    43     -0.916768  4 H  pz                 7     -0.895140  1 C  pz

 Vector   72  Occ=0.000000D+00  E= 2.912665D+00  Symmetry=a'
              MO Center=  4.2D-01,  1.1D+00,  4.4D-15, r^2= 1.4D+00
   Bfn.  Coefficient  Atom+Function         Bfn.  Coefficient  Atom+Function
  ----- ------------  ---------------      ----- ------------  ---------------
     3     12.117026  1 C  s                 24     -6.479319  2 H  s
    32     -4.841727  3 H  s                 40     -4.841727  4 H  s
    22      2.144754  1 C  dzz                8      1.908710  1 C  px
    28      1.685474  2 H  px                25      1.505435  2 H  px
    50      1.394888  5 Cl s                 17      1.347332  1 C  dxx

 Vector   73  Occ=0.000000D+00  E= 3.250636D+00  Symmetry=a'
              MO Center= -1.5D-01,  1.2D+00, -9.0D-15, r^2= 1.3D+00
   Bfn.  Coefficient  Atom+Function         Bfn.  Coefficient  Atom+Function
  ----- ------------  ---------------      ----- ------------  ---------------
     3      8.887957  1 C  s                 32     -5.654172  3 H  s
    40     -5.654172  4 H  s                 22      2.231541  1 C  dzz
    16      1.664087  1 C  dzz                8     -1.558120  1 C  px
    31     -1.104757  3 H  s                 39     -1.104757  4 H  s
    11     -0.960538  1 C  dxx               35      0.953235  3 H  pz

 Vector   74  Occ=0.000000D+00  E= 3.969540D+00  Symmetry=a'
              MO Center= -5.6D-03, -6.2D-01,  9.2D-16, r^2= 1.3D+00
   Bfn.  Coefficient  Atom+Function         Bfn.  Coefficient  Atom+Function
  ----- ------------  ---------------      ----- ------------  ---------------
    50      2.842880  5 Cl s                 49      2.729107  5 Cl s
    67     -2.323514  5 Cl dyy               64     -2.295838  5 Cl dxx
    69     -2.293784  5 Cl dzz               51      2.108153  5 Cl s
     3     -1.992052  1 C  s                 48     -1.608912  5 Cl s
    70     -1.183033  5 Cl dxx               75     -1.179198  5 Cl dzz

 Vector   75  Occ=0.000000D+00  E= 5.262369D+00  Symmetry=a'
              MO Center= -3.5D-02,  1.2D+00, -2.0D-16, r^2= 6.4D-01
   Bfn.  Coefficient  Atom+Function         Bfn.  Coefficient  Atom+Function
  ----- ------------  ---------------      ----- ------------  ---------------
     2      3.697464  1 C  s                 16     -2.350268  1 C  dzz
    11     -2.043716  1 C  dxx                4      1.741998  1 C  s
    14     -1.738038  1 C  dyy                1     -0.946062  1 C  s
    22     -0.799990  1 C  dzz               51     -0.691298  5 Cl s
     3     -0.610278  1 C  s                 20     -0.541622  1 C  dyy


 center of mass
 --------------
 x =  -0.01027371 y =  -0.15367489 z =   0.00000000

 moments of inertia (a.u.)
 ------------------
         126.412842417969          -0.000000000000           0.000000000000
          -0.000000000000          12.587290937778           0.000000000000
           0.000000000000           0.000000000000         124.022502120076

     Multipole analysis of the density
     ---------------------------------

     L   x y z        total         alpha         beta         nuclear
     -   - - -        -----         -----         ----         -------
     0   0 0 0      0.000000    -13.000000    -13.000000     26.000000

     1   1 0 0      0.047469      0.023734      0.023734      0.000000
     1   0 1 0      0.712622      0.356311      0.356311      0.000000
     1   0 0 1     -0.000000     -0.000000     -0.000000      0.000000

     2   2 0 0    -15.192568    -10.117812    -10.117812      5.043056
     2   1 1 0      0.097706     -0.263094     -0.263094      0.623893
     2   1 0 1     -0.000000     -0.000000     -0.000000      0.000000
     2   0 2 0    -15.081824    -40.846856    -40.846856     66.611888
     2   0 1 1     -0.000000     -0.000000     -0.000000      0.000000
     2   0 0 2    -14.350446    -10.890558    -10.890558      7.430671


 Parallel integral file used      52 records with       0 large values


            General Information
            -------------------
          SCF calculation type: DFT
          Wavefunction type:  closed shell.
          No. of atoms     :     5
          No. of electrons :    26
           Alpha electrons :    13
            Beta electrons :    13
          Charge           :     0
          Spin multiplicity:     1
          Use of symmetry is: on ; symmetry adaption is: on
          Maximum number of iterations: 200
          AO basis - number of functions:    75
                     number of shells:    31
          Convergence on energy requested:  1.00D-06
          Convergence on density requested:  1.00D-05
          Convergence on gradient requested:  5.00D-04

              XC Information
              --------------
                         B3LYP Method XC Potential
                     Hartree-Fock (Exact) Exchange  0.200
                        Slater Exchange Functional  0.800 local
                    Becke 1988 Exchange Functional  0.720 non-local
              Lee-Yang-Parr Correlation Functional  0.810
                  VWN I RPA Correlation Functional  0.190 local

             Grid Information
             ----------------
          Grid used for XC integration:  xfine
          Radial quadrature: Mura-Knowles
          Angular quadrature: Lebedev.
          Tag              B.-S. Rad. Rad. Pts. Rad. Cut. Ang. Pts.
          ---              ---------- --------- --------- ---------
          C                   0.70      100          11.0      1454
          H                   0.35      100          10.0      1202
          Cl                  1.00      125          10.0      1454
          Grid pruning is: on
          Number of quadrature shells:   425
          Spatial weights used:  Erf1

          Convergence Information
          -----------------------
          Convergence aids based upon iterative change in
          total energy or number of iterations.
          Levelshifting, if invoked, occurs when the
          HOMO/LUMO gap drops below (HL_TOL):  1.00D-02
          DIIS, if invoked, will attempt to extrapolate
          using up to (NFOCK): 10 stored Fock matrices.

                    Damping( 0%)  Levelshifting(0.5)       DIIS
                  --------------- ------------------- ---------------
          dE  on:    start            ASAP                start
          dE off:    2 iters        200 iters           200 iters


      Screening Tolerance Information
      -------------------------------
          Density screening/tol_rho:  1.00D-10
          AO Gaussian exp screening on grid/accAOfunc:  14
          CD Gaussian exp screening on grid/accCDfunc:  20
          XC Gaussian exp screening on grid/accXCfunc:  20
          Schwarz screening/accCoul:  1.00D-08



                            NWChem DFT Gradient Module
                            --------------------------


                                  CH3Cl gradient



  charge          =   0.00
  wavefunction    = closed shell

  Using symmetry


                         DFT ENERGY GRADIENTS

    atom               coordinates                        gradient
                 x          y          z           x          y          z
   1 C      -0.057336   2.198759   0.000000   -0.037465   0.044906   0.000000
   2 H       1.983363   2.227686   0.000000   -0.009944  -0.034490   0.000000
   3 H      -0.737569   2.189116   1.927521    0.022339  -0.041885   0.003029
   4 H      -0.737569   2.189116  -1.927521    0.022339  -0.041885  -0.003029
   5 Cl     -0.009659  -1.164616   0.000000    0.002731   0.073353   0.000000

                 ----------------------------------------
                 |  Time  |  1-e(secs)   |  2-e(secs)   |
                 ----------------------------------------
                 |  CPU   |       0.01   |       2.94   |
                 ----------------------------------------
                 |  WALL  |       0.00   |       3.05   |
                 ----------------------------------------

 Task  times  cpu:      177.4s     wall:       96.4s


                                NWChem Input Module
                                -------------------


 Summary of allocated global arrays
-----------------------------------
  No active global arrays


MA_summarize_allocated_blocks: starting scan ...
MA_summarize_allocated_blocks: scan completed: 0 heap blocks, 0 stack blocks
MA usage statistics:

        allocation statistics:
                                              heap           stack
                                              ----           -----
        current number of blocks                 0               0
        maximum number of blocks                24              57
        current total bytes                      0               0
        maximum total bytes               66511824        32933144
        maximum total K-bytes                66512           32934
        maximum total M-bytes                   67              33


                                     CITATION
                                     --------
                Please cite the following reference when publishing
                           results obtained with NWChem:

          E. Apra, E. J. Bylaska, W. A. de Jong, N. Govind, K. Kowalski,
       T. P. Straatsma, M. Valiev, H. J. J. van Dam, Y. Alexeev, J. Anchell,
       V. Anisimov, F. W. Aquino, R. Atta-Fynn, J. Autschbach, N. P. Bauman,
     J. C. Becca, D. E. Bernholdt, K. Bhaskaran-Nair, S. Bogatko, P. Borowski,
         J. Boschen, J. Brabec, A. Bruner, E. Cauet, Y. Chen, G. N. Chuev,
      C. J. Cramer, J. Daily, M. J. O. Deegan, T. H. Dunning Jr., M. Dupuis,
   K. G. Dyall, G. I. Fann, S. A. Fischer, A. Fonari, H. Fruchtl, L. Gagliardi,
      J. Garza, N. Gawande, S. Ghosh, K. Glaesemann, A. W. Gotz, J. Hammond,
       V. Helms, E. D. Hermes, K. Hirao, S. Hirata, M. Jacquelin, L. Jensen,
   B. G. Johnson, H. Jonsson, R. A. Kendall, M. Klemm, R. Kobayashi, V. Konkov,
      S. Krishnamoorthy, M. Krishnan, Z. Lin, R. D. Lins, R. J. Littlefield,
      A. J. Logsdail, K. Lopata, W. Ma, A. V. Marenich, J. Martin del Campo,
   D. Mejia-Rodriguez, J. E. Moore, J. M. Mullin, T. Nakajima, D. R. Nascimento,
    J. A. Nichols, P. J. Nichols, J. Nieplocha, A. Otero-de-la-Roza, B. Palmer,
    A. Panyala, T. Pirojsirikul, B. Peng, R. Peverati, J. Pittner, L. Pollack,
   R. M. Richard, P. Sadayappan, G. C. Schatz, W. A. Shelton, D. W. Silverstein,
   D. M. A. Smith, T. A. Soares, D. Song, M. Swart, H. L. Taylor, G. S. Thomas,
            V. Tipparaju, D. G. Truhlar, K. Tsemekhman, T. Van Voorhis,
      A. Vazquez-Mayagoitia, P. Verma, O. Villa, A. Vishnu, K. D. Vogiatzis,
        D. Wang, J. H. Weare, M. J. Williamson, T. L. Windus, K. Wolinski,
        A. T. Wong, Q. Wu, C. Yang, Q. Yu, M. Zacharias, Z. Zhang, Y. Zhao,
                                and R. J. Harrison
                        "NWChem: Past, present, and future
                         J. Chem. Phys. 152, 184102 (2020)
                               doi:10.1063/5.0004997

                                      AUTHORS
                                      -------
  E. Apra, E. J. Bylaska, N. Govind, K. Kowalski, M. Valiev, D. Mejia-Rodriguez,
       A. Kunitsa, N. P. Bauman, A. Panyala, W. A. de Jong, T. P. Straatsma,
   H. J. J. van Dam, D. Wang, T. L. Windus, J. Hammond, J. Autschbach, A. Woods,
    K. Bhaskaran-Nair, J. Brabec, K. Lopata, S. A. Fischer, S. Krishnamoorthy,
     M. Jacquelin, W. Ma, M. Klemm, O. Villa, Y. Chen, V. Anisimov, F. Aquino,
     S. Hirata, M. T. Hackler, E. Hermes, L. Jensen, J. E. Moore, J. C. Becca,
      V. Konjkov, T. Risthaus, M. Malagoli, A. Marenich, A. Otero-de-la-Roza,
        J. Mullin, P. Nichols, R. Peverati, J. Pittner, Y. Zhao, P.-D. Fan,
        A. Fonari, M. J. Williamson, R. J. Harrison, J. R. Rehr, M. Dupuis,
     D. Silverstein, D. M. A. Smith, J. Nieplocha, V. Tipparaju, M. Krishnan,
     B. E. Van Kuiken, A. Vazquez-Mayagoitia, M. Swart, Q. Wu, T. Van Voorhis,
     A. A. Auer, M. Nooijen, L. D. Crosby, E. Brown, G. Cisneros, G. I. Fann,
   H. Fruchtl, J. Garza, K. Hirao, R. A. Kendall, J. A. Nichols, K. Tsemekhman,
    K. Wolinski, J. Anchell, D. E. Bernholdt, P. Borowski, T. Clark, D. Clerc,
   H. Dachsel, M. J. O. Deegan, K. Dyall, D. Elwood, E. Glendening, M. Gutowski,
   A. C. Hess, J. Jaffe, B. G. Johnson, J. Ju, R. Kobayashi, R. Kutteh, Z. Lin,
   R. Littlefield, X. Long, B. Meng, T. Nakajima, S. Niu, L. Pollack, M. Rosing,
   K. Glaesemann, G. Sandrone, M. Stave, H. Taylor, G. Thomas, J. H. van Lenthe,
                               A. T. Wong, Z. Zhang.

 Total times  cpu:      177.4s     wall:       96.6s
[0] ARMCI Warning: Freed 1 leaked allocations
sebastian@DESKTOP-B8GSJV0:~$


















































































































































































































































































































































































































































































































































































































































































































































































































































































































































































































































































































































































































































































































































































































































































































































































































































































































































































































































































































































































































































































































































































































































































































































































































































































































































































































































































































































































































































































































































































































































































































































































































































