 argument  1 = /mnt/c/Users/ddizy/Desktop/qcproject/reactions/sn2_methylchloride_f_attack/inputs_nwchem/gas_phase/ch3f_opt_freq.nw



============================== echo of input deck ==============================
start CH3F_opt_freq
title "CH3F gas opt+freq"
memory total 2000 mb
echo
scratch_dir /mnt/c/Users/ddizy/Desktop/qcproject/reactions/sn2_methylchloride_f_attack/runs_nwchem/gas_phase/scratch
permanent_dir /mnt/c/Users/ddizy/Desktop/qcproject/reactions/sn2_methylchloride_f_attack/runs_nwchem/gas_phase/perm

charge 0
geometry units angstrom
 C   0.000   0.000   0.000
 H   0.000   1.080   0.000
 H   1.020  -0.360   0.000
 H  -1.020  -0.360   0.000
 F  0.000   0.000   1.3
end

basis
    * library def2-svpd
end

dft
  xc b3lyp
  grid xfine
  iterations 200
end

task dft optimize
task dft freq


#nwchem ~/СH3Cl+F=CH3F+Cl/inputs/gas_env/CH3F_opt_freq.nw > ~/СH3Cl+F=CH3F+Cl/outputs/gas_env/CH3F_opt_freq.out
#grep -i "Total DFT energy" "$HOME/СH3Cl+F=CH3F+Cl/outputs/gas_env/CH3F_opt_freq.out"
================================================================================


                                         
                                         


             Northwest Computational Chemistry Package (NWChem) 7.2.2
             --------------------------------------------------------


                    Environmental Molecular Sciences Laboratory
                       Pacific Northwest National Laboratory
                                Richland, WA 99352

                              Copyright (c) 1994-2022
                       Pacific Northwest National Laboratory
                            Battelle Memorial Institute

             NWChem is an open-source computational chemistry package
                        distributed under the terms of the
                      Educational Community License (ECL) 2.0
             A copy of the license is included with this distribution
                              in the LICENSE.TXT file

                                  ACKNOWLEDGMENT
                                  --------------

            This software and its documentation were developed at the
            EMSL at Pacific Northwest National Laboratory, a multiprogram
            national laboratory, operated for the U.S. Department of Energy
            by Battelle under Contract Number DE-AC05-76RL01830. Support
            for this work was provided by the Department of Energy Office
            of Biological and Environmental Research, Office of Basic
            Energy Sciences, and the Office of Advanced Scientific Computing.


           Job information
           ---------------

    hostname        = DESKTOP-B8GSJV0
    program         = nwchem
    date            = Sat Sep 20 20:50:53 2025

    compiled        = Mon_Apr_01_11:12:32_2024
    source          = /build/nwchem-qbYJLs/nwchem-7.2.2/build-openmpi
    nwchem branch   = 7.2.2
    nwchem revision = N/A
    ga revision     = N/A
    use scalapack   = T
    input           = /mnt/c/Users/ddizy/Desktop/qcproject/reactions/sn2_methylchloride_f_attack/inputs_nwchem/gas_phase/ch3f_opt_freq.nw
    prefix          = CH3F_opt_freq.
    data base       = /mnt/c/Users/ddizy/Desktop/qcproject/reactions/sn2_methylchloride_f_attack/runs_nwchem/gas_phase/perm/CH3F_opt_freq.db
    status          = startup
    nproc           =        1
    time left       =     -1s



           Memory information
           ------------------

    heap     =   65535998 doubles =    500.0 Mbytes
    stack    =   65535995 doubles =    500.0 Mbytes
    global   =  131072000 doubles =   1000.0 Mbytes (distinct from heap & stack)
    total    =  262143993 doubles =   2000.0 Mbytes
    verify   = yes
    hardfail = no 


           Directory information
           ---------------------

  0 permanent = /mnt/c/Users/ddizy/Desktop/qcproject/reactions/sn2_methylchloride_f_attack/runs_nwchem/gas_phase/perm
  0 scratch   = /mnt/c/Users/ddizy/Desktop/qcproject/reactions/sn2_methylchloride_f_attack/runs_nwchem/gas_phase/scratch




                                NWChem Input Module
                                -------------------


                                 CH3F gas opt+freq
                                 -----------------

 Scaling coordinates for geometry "geometry" by  1.889725989
 (inverse scale =  0.529177249)

 CS  symmetry detected

          ------
          auto-z
          ------
  Looking for out-of-plane bends
  no constraints, skipping    0.0000000000000000     
  no constraints, skipping    0.0000000000000000     


                             Geometry "geometry" -> ""
                             -------------------------

 Output coordinates in angstroms (scale by  1.889725989 to convert to a.u.)

  No.       Tag          Charge          X              Y              Z
 ---- ---------------- ---------- -------------- -------------- --------------
    1 C                    6.0000    -0.03341969     0.64944832     0.00000000
    2 H                    1.0000     1.04634997     0.67175274     0.00000000
    3 H                    1.0000    -0.39334291     0.64201352     1.02000000
    4 H                    1.0000    -0.39334291     0.64201352    -1.02000000
    5 F                    9.0000    -0.00657178    -0.65027441     0.00000000

      Atomic Mass 
      ----------- 

      C                 12.000000
      H                  1.007825
      F                 18.998400


 Effective nuclear repulsion energy (a.u.)      40.1012486142

            Nuclear Dipole moment (a.u.) 
            ----------------------------
        X                 Y               Z
 ---------------- ---------------- ----------------
    -0.0000000000     0.0000000000     0.0000000000

      Symmetry information
      --------------------

 Group name             Cs        
 Group number              2
 Group order               2
 No. of unique centers     4

      Symmetry unique atoms

     1    2    3    5



                                Z-matrix (autoz)
                                -------- 

 Units are Angstrom for bonds and degrees for angles

      Type          Name      I     J     K     L     M      Value
      ----------- --------  ----- ----- ----- ----- ----- ----------
    1 Stretch                  1     2                       1.08000
    2 Stretch                  1     3                       1.08167
    3 Stretch                  1     4                       1.08167
    4 Stretch                  1     5                       1.30000
    5 Bend                     2     1     3               109.44003
    6 Bend                     2     1     4               109.44003
    7 Bend                     2     1     5                90.00000
    8 Bend                     3     1     4               141.11993
    9 Bend                     3     1     5                90.00000
   10 Bend                     4     1     5                90.00000


            XYZ format geometry
            -------------------
     5
 geometry
 C                    -0.03341969     0.64944832     0.00000000
 H                     1.04634997     0.67175274     0.00000000
 H                    -0.39334291     0.64201352     1.02000000
 H                    -0.39334291     0.64201352    -1.02000000
 F                    -0.00657178    -0.65027441     0.00000000

 ==============================================================================
                                internuclear distances
 ------------------------------------------------------------------------------
       center one      |      center two      | atomic units |  angstroms
 ------------------------------------------------------------------------------
    2 H                |   1 C                |     2.04090  |     1.08000
    3 H                |   1 C                |     2.04405  |     1.08167
    4 H                |   1 C                |     2.04405  |     1.08167
    5 F                |   1 C                |     2.45664  |     1.30000
 ------------------------------------------------------------------------------
                         number of included internuclear distances:          4
 ==============================================================================



 ==============================================================================
                                 internuclear angles
 ------------------------------------------------------------------------------
        center 1       |       center 2       |       center 3       |  degrees
 ------------------------------------------------------------------------------
    2 H                |   1 C                |   3 H                |   109.44
    2 H                |   1 C                |   4 H                |   109.44
    2 H                |   1 C                |   5 F                |    90.00
    3 H                |   1 C                |   4 H                |   141.12
    3 H                |   1 C                |   5 F                |    90.00
    4 H                |   1 C                |   5 F                |    90.00
 ------------------------------------------------------------------------------
                            number of included internuclear angles:          6
 ==============================================================================





 Summary of "ao basis" -> "" (cartesian)
 ------------------------------------------------------------------------------
       Tag                 Description            Shells   Functions and Types
 ---------------- ------------------------------  ------  ---------------------
 *                         def2-svpd                  on all atoms 




                           NWChem Geometry Optimization
                           ----------------------------




                                 CH3F gas opt+freq


  no constraints, skipping    0.0000000000000000     
 maximum gradient threshold         (gmax) =   0.000450
 rms gradient threshold             (grms) =   0.000300
 maximum cartesian step threshold   (xmax) =   0.001800
 rms cartesian step threshold       (xrms) =   0.001200
 fixed trust radius                (trust) =   0.300000
 maximum step size to saddle      (sadstp) =   0.100000
 energy precision                  (eprec) =   5.0D-06
 maximum number of steps          (nptopt) =   40
 initial hessian option           (inhess) =    0
 line search option               (linopt) =    1
 hessian update option            (modupd) =    1
 saddle point option              (modsad) =    0
 initial eigen-mode to follow     (moddir) =    0
 initial variable to follow       (vardir) =    0
 follow first negative mode     (firstneg) =    T
 apply conjugacy                    (opcg) =    F
 source of zmatrix                         =   autoz   


          -------------------
          Energy Minimization
          -------------------


 Names of Z-matrix variables 
    1              2              3              4              5         
    6              7              8              9             10         

 Variables with the same non-blank name are constrained to be equal


 Using diagonal initial Hessian 
 Scaling for Hessian diagonals: bonds = 1.00  angles = 0.25  torsions = 0.10

          --------
          Step   0
          --------


                         Geometry "geometry" -> "geometry"
                         ---------------------------------

 Output coordinates in angstroms (scale by  1.889725989 to convert to a.u.)

  No.       Tag          Charge          X              Y              Z
 ---- ---------------- ---------- -------------- -------------- --------------
    1 C                    6.0000    -0.03341969     0.64944832     0.00000000
    2 H                    1.0000     1.04634997     0.67175274     0.00000000
    3 H                    1.0000    -0.39334291     0.64201352     1.02000000
    4 H                    1.0000    -0.39334291     0.64201352    -1.02000000
    5 F                    9.0000    -0.00657178    -0.65027441     0.00000000

      Atomic Mass 
      ----------- 

      C                 12.000000
      H                  1.007825
      F                 18.998400


 Effective nuclear repulsion energy (a.u.)      40.1012486142

            Nuclear Dipole moment (a.u.) 
            ----------------------------
        X                 Y               Z
 ---------------- ---------------- ----------------
    -0.0000000000     0.0000000000     0.0000000000

      Symmetry information
      --------------------

 Group name             Cs        
 Group number              2
 Group order               2
 No. of unique centers     4

      Symmetry unique atoms

     1    2    3    5


                                 NWChem DFT Module
                                 -----------------


                                 CH3F gas opt+freq


                      Basis "ao basis" -> "ao basis" (cartesian)
                      -----
  C (Carbon)
  ----------
            Exponent  Coefficients 
       -------------- ---------------------------------------------------------
  1 S  1.23840169E+03  0.005457
  1 S  1.86290050E+02  0.040638
  1 S  4.22511763E+01  0.180256
  1 S  1.16765579E+01  0.463151
  1 S  3.59305065E+00  0.440872

  2 S  4.02451474E-01  1.000000

  3 S  1.30901827E-01  1.000000

  4 S  6.70535403E-02  1.000000

  5 P  9.46809706E+00  0.038388
  5 P  2.01035451E+00  0.211170
  5 P  5.47710047E-01  0.513282

  6 P  1.52686138E-01  1.000000

  7 D  8.00000000E-01  1.000000

  8 D  1.17131851E-01  1.000000

  H (Hydrogen)
  ------------
            Exponent  Coefficients 
       -------------- ---------------------------------------------------------
  1 S  1.30107010E+01  0.019682
  1 S  1.96225720E+00  0.137965
  1 S  4.44537960E-01  0.478319

  2 S  1.21949620E-01  1.000000

  3 P  8.00000000E-01  1.000000

  4 P  1.17040991E-01  1.000000

  F (Fluorine)
  ------------
            Exponent  Coefficients 
       -------------- ---------------------------------------------------------
  1 S  2.89483260E+03 -0.005341
  1 S  4.35419391E+02 -0.039904
  1 S  9.88433289E+01 -0.179128
  1 S  2.74851980E+01 -0.467581
  1 S  8.54054982E+00 -0.446531

  2 S  1.06545780E+00  1.000000

  3 S  3.32473467E-01  1.000000

  4 S  9.80977523E-02  1.000000

  5 P  2.26966339E+01 -0.045213
  5 P  4.98723393E+00 -0.237543
  5 P  1.34916140E+00 -0.512874

  6 P  3.48298820E-01  1.000000

  7 P  8.33721483E-02  1.000000

  8 D  1.40000000E+00  1.000000

  9 D  2.23013619E-01  1.000000



 Summary of "ao basis" -> "ao basis" (cartesian)
 ------------------------------------------------------------------------------
       Tag                 Description            Shells   Functions and Types
 ---------------- ------------------------------  ------  ---------------------
 C                         def2-svpd                 8       22   4s2p2d
 H                         def2-svpd                 4        8   2s2p
 F                         def2-svpd                 9       25   4s3p2d




 Summary of "ao basis" -> "ao basis" (cartesian)
 ------------------------------------------------------------------------------
       Tag                 Description            Shells   Functions and Types
 ---------------- ------------------------------  ------  ---------------------
 C                         def2-svpd                 8       22   4s2p2d
 H                         def2-svpd                 4        8   2s2p
 F                         def2-svpd                 9       25   4s3p2d


      Symmetry analysis of basis
      --------------------------

        a'         48
        a"         23

  Caching 1-el integrals 

            General Information
            -------------------
          SCF calculation type: DFT
          Wavefunction type:  closed shell.
          No. of atoms     :     5
          No. of electrons :    18
           Alpha electrons :     9
            Beta electrons :     9
          Charge           :     0
          Spin multiplicity:     1
          Use of symmetry is: on ; symmetry adaption is: on 
          Maximum number of iterations: 200
          AO basis - number of functions:    71
                     number of shells:    29
          Convergence on energy requested:  1.00D-06
          Convergence on density requested:  1.00D-05
          Convergence on gradient requested:  5.00D-04

              XC Information
              --------------
                         B3LYP Method XC Potential
                     Hartree-Fock (Exact) Exchange  0.200          
                        Slater Exchange Functional  0.800 local    
                    Becke 1988 Exchange Functional  0.720 non-local
              Lee-Yang-Parr Correlation Functional  0.810          
                  VWN I RPA Correlation Functional  0.190 local    

             Grid Information
             ----------------
          Grid used for XC integration:  xfine     
          Radial quadrature: Mura-Knowles        
          Angular quadrature: Lebedev. 
          Tag              B.-S. Rad. Rad. Pts. Rad. Cut. Ang. Pts.
          ---              ---------- --------- --------- ---------
          C                   0.70      100           8.0      1454
          H                   0.35      100           8.0      1202
          F                   0.50      100           8.0      1454
          Grid pruning is: on 
          Number of quadrature shells:   400
          Spatial weights used:  Erf1

          Convergence Information
          -----------------------
          Convergence aids based upon iterative change in 
          total energy or number of iterations. 
          Levelshifting, if invoked, occurs when the 
          HOMO/LUMO gap drops below (HL_TOL):  1.00D-02
          DIIS, if invoked, will attempt to extrapolate 
          using up to (NFOCK): 10 stored Fock matrices.

                    Damping( 0%)  Levelshifting(0.5)       DIIS
                  --------------- ------------------- ---------------
          dE  on:    start            ASAP                start   
          dE off:    2 iters        200 iters           200 iters 


      Screening Tolerance Information
      -------------------------------
          Density screening/tol_rho:  1.00D-10
          AO Gaussian exp screening on grid/accAOfunc:  14
          CD Gaussian exp screening on grid/accCDfunc:  20
          XC Gaussian exp screening on grid/accXCfunc:  20
          Schwarz screening/accCoul:  1.00D-08


      Superposition of Atomic Density Guess
      -------------------------------------

 Sum of atomic energies:        -138.42012618

      Non-variational initial energy
      ------------------------------

 Total energy =    -139.395211
 1-e energy   =    -269.765204
 2-e energy   =      90.268744
 HOMO         =      -0.391402
 LUMO         =       0.049333


      Symmetry analysis of molecular orbitals - initial
      -------------------------------------------------

  Numbering of irreducible representations: 

     1 a'          2 a"      

  Orbital symmetries:

     1 a'          2 a'          3 a'          4 a'          5 a"      
     6 a'          7 a'          8 a"          9 a'         10 a'      
    11 a'         12 a"         13 a'         14 a'         15 a'      
    16 a"         17 a"         18 a'         19 a'      

  WARNING: movecs_in_org=atomic not equal to movecs_in=/mnt/c/Users/ddizy/Desktop/qcproject/reactions/sn2_methylchloride_f_attack/runs_nwchem/gas_phase/perm/CH3F_opt_freq.movecs
   Time after variat. SCF:      1.3
   Time prior to 1st pass:      1.3

 Integral file          = /mnt/c/Users/ddizy/Desktop/qcproject/reactions/sn2_methylchloride_f_attack/runs_nwchem/gas_phase/scratch/CH3F_opt_freq.aoints.0
 Record size in doubles =  65536        No. of integs per rec  =  43688
 Max. records in memory =     69        Max. records in file   = 217982
 No. of bits per label  =      8        No. of bits per value  =     64


 #quartets = 6.406D+04 #integrals = 1.826D+06 #direct =  0.0% #cached =100.0%


 Grid_pts file          = /mnt/c/Users/ddizy/Desktop/qcproject/reactions/sn2_methylchloride_f_attack/runs_nwchem/gas_phase/scratch/CH3F_opt_freq.gridpts.0
 Record size in doubles =  12289        No. of grid_pts per rec  =   3070
 Max. records in memory =    210        Max. recs in file   =   1162320

 Grid integrated density:      18.000000916801
 Requested integration accuracy:   0.10E-07

           Memory utilization after 1st SCF pass: 
           Heap Space remaining (MW):       58.43            58430814
          Stack Space remaining (MW):       65.54            65535460

   convergence    iter        energy       DeltaE   RMS-Dens  Diis-err    time
 ---------------- ----- ----------------- --------- --------- ---------  ------
 d= 0,ls=0.0,diis     1   -139.5303869769 -1.80D+02  3.53D-02  4.29D-01    12.9
 Grid integrated density:      18.000000905141
 Requested integration accuracy:   0.10E-07
 d= 0,ls=0.0,diis     2   -139.5195569057  1.08D-02  7.77D-03  6.31D-01    23.7
 d= 0,ls=0.0,diis     3   -139.5694514770 -4.99D-02  2.73D-03  1.73D-02    33.8
 d= 0,ls=0.0,diis     4   -139.5706017173 -1.15D-03  7.39D-04  1.30D-03    43.9
 d= 0,ls=0.0,diis     5   -139.5707269319 -1.25D-04  1.20D-04  4.60D-05    54.4
  Resetting Diis
 d= 0,ls=0.0,diis     6   -139.5707322590 -5.33D-06  2.14D-05  3.08D-07    66.3
 d= 0,ls=0.0,diis     7   -139.5707322937 -3.47D-08  4.23D-06  1.43D-08    77.5


         Total DFT energy =     -139.570732293733
      One electron energy =     -271.387605039817
           Coulomb energy =      108.743692212247
    Exchange-Corr. energy =      -17.028068080356
 Nuclear repulsion energy =       40.101248614193

 Numeric. integr. density =       17.999999998219

     Total iterative time =     76.2s



                  Occupations of the irreducible representations
                  ----------------------------------------------

                     irrep           alpha         beta
                     --------     --------     --------
                     a'                7.0          7.0
                     a"                2.0          2.0


                       DFT Final Molecular Orbital Analysis
                       ------------------------------------

 Vector    1  Occ=2.000000D+00  E=-2.468091D+01  Symmetry=a'
              MO Center= -6.6D-03, -6.5D-01, -7.1D-18, r^2= 1.2D-02
   Bfn.  Coefficient  Atom+Function         Bfn.  Coefficient  Atom+Function  
  ----- ------------  ---------------      ----- ------------  ---------------
    47      0.985448  5 F  s                 48     -0.047701  5 F  s          

 Vector    2  Occ=2.000000D+00  E=-1.025769D+01  Symmetry=a'
              MO Center= -3.3D-02,  6.5D-01, -1.3D-17, r^2= 2.8D-02
   Bfn.  Coefficient  Atom+Function         Bfn.  Coefficient  Atom+Function  
  ----- ------------  ---------------      ----- ------------  ---------------
     1      0.987312  1 C  s                  2      0.064059  1 C  s          
     4     -0.034658  1 C  s                 50     -0.028429  5 F  s          

 Vector    3  Occ=2.000000D+00  E=-1.218013D+00  Symmetry=a'
              MO Center= -7.6D-03, -4.2D-01, -1.6D-16, r^2= 4.3D-01
   Bfn.  Coefficient  Atom+Function         Bfn.  Coefficient  Atom+Function  
  ----- ------------  ---------------      ----- ------------  ---------------
    48      0.562265  5 F  s                 49      0.397930  5 F  s          
    47      0.281409  5 F  s                  2      0.178403  1 C  s          
     3      0.153777  1 C  s                  6     -0.134823  1 C  py         
    52     -0.115896  5 F  py                32     -0.093779  3 H  s          
    40     -0.093779  4 H  s                  1     -0.092188  1 C  s          

 Vector    4  Occ=2.000000D+00  E=-6.918898D-01  Symmetry=a'
              MO Center=  3.6D-02,  1.4D-01, -1.8D-15, r^2= 1.3D+00
   Bfn.  Coefficient  Atom+Function         Bfn.  Coefficient  Atom+Function  
  ----- ------------  ---------------      ----- ------------  ---------------
     3      1.060196  1 C  s                  2      0.463253  1 C  s          
    32     -0.465132  3 H  s                 40     -0.465132  4 H  s          
    22      0.304795  1 C  dzz               52     -0.278600  5 F  py         
    48     -0.267050  5 F  s                  4     -0.220946  1 C  s          
     1     -0.215858  1 C  s                 49     -0.185965  5 F  s          

 Vector    5  Occ=2.000000D+00  E=-5.489348D-01  Symmetry=a"
              MO Center= -1.2D-01,  1.5D-01,  5.9D-15, r^2= 1.2D+00
   Bfn.  Coefficient  Atom+Function         Bfn.  Coefficient  Atom+Function  
  ----- ------------  ---------------      ----- ------------  ---------------
     7      0.374998  1 C  pz                53     -0.374244  5 F  pz         
    32      0.259696  3 H  s                 40     -0.259696  4 H  s          
    31      0.249095  3 H  s                 39     -0.249095  4 H  s          
    56      0.243138  5 F  pz                19      0.199734  1 C  dxz        
    38     -0.063340  3 H  pz                46     -0.063340  4 H  pz         

 Vector    6  Occ=2.000000D+00  E=-5.165134D-01  Symmetry=a'
              MO Center=  1.5D-01, -1.2D-02,  1.3D-15, r^2= 1.1D+00
   Bfn.  Coefficient  Atom+Function         Bfn.  Coefficient  Atom+Function  
  ----- ------------  ---------------      ----- ------------  ---------------
    51      0.437614  5 F  px                 3     -0.368907  1 C  s          
     5     -0.340429  1 C  px                54     -0.281642  5 F  px         
    32      0.267970  3 H  s                 40      0.267970  4 H  s          
    23     -0.255371  2 H  s                 22     -0.160230  1 C  dzz        
    31      0.093798  3 H  s                 39      0.093798  4 H  s          

 Vector    7  Occ=2.000000D+00  E=-4.682983D-01  Symmetry=a'
              MO Center= -6.4D-02,  5.8D-02, -6.6D-15, r^2= 1.4D+00
   Bfn.  Coefficient  Atom+Function         Bfn.  Coefficient  Atom+Function  
  ----- ------------  ---------------      ----- ------------  ---------------
     3      0.584395  1 C  s                 52      0.492000  5 F  py         
     6      0.357981  1 C  py                55     -0.269287  5 F  py         
    32     -0.200225  3 H  s                 40     -0.200225  4 H  s          
     2      0.154678  1 C  s                 31      0.145246  3 H  s          
    39      0.145246  4 H  s                 50      0.141112  5 F  s          

 Vector    8  Occ=2.000000D+00  E=-3.392096D-01  Symmetry=a"
              MO Center= -9.5D-02, -1.1D-01,  2.5D-15, r^2= 1.3D+00
   Bfn.  Coefficient  Atom+Function         Bfn.  Coefficient  Atom+Function  
  ----- ------------  ---------------      ----- ------------  ---------------
    53      0.561661  5 F  pz                56     -0.378812  5 F  pz         
     7      0.287609  1 C  pz                31      0.244038  3 H  s          
    39     -0.244038  4 H  s                 32      0.183798  3 H  s          
    40     -0.183798  4 H  s                 59     -0.088449  5 F  pz         
    19      0.084451  1 C  dxz               21      0.072479  1 C  dyz        

 Vector    9  Occ=2.000000D+00  E=-3.170606D-01  Symmetry=a'
              MO Center=  1.4D-01,  6.7D-02,  1.0D-16, r^2= 1.4D+00
   Bfn.  Coefficient  Atom+Function         Bfn.  Coefficient  Atom+Function  
  ----- ------------  ---------------      ----- ------------  ---------------
    51      0.508503  5 F  px                54     -0.345328  5 F  px         
     5      0.332787  1 C  px                23      0.319611  2 H  s          
     3      0.260740  1 C  s                 32     -0.232470  3 H  s          
    40     -0.232470  4 H  s                 31     -0.152030  3 H  s          
    39     -0.152030  4 H  s                  8      0.120270  1 C  px         

 Vector   10  Occ=0.000000D+00  E= 8.715820D-03  Symmetry=a'
              MO Center=  1.1D-02,  3.3D-01,  1.6D-14, r^2= 5.4D+00
   Bfn.  Coefficient  Atom+Function         Bfn.  Coefficient  Atom+Function  
  ----- ------------  ---------------      ----- ------------  ---------------
     4      3.337418  1 C  s                  3     -0.691050  1 C  s          
    50     -0.676078  5 F  s                 20     -0.661370  1 C  dyy        
    17     -0.397901  1 C  dxx               58     -0.362201  5 F  py         
     2     -0.337862  1 C  s                 22     -0.295192  1 C  dzz        
     6     -0.249733  1 C  py                38      0.196471  3 H  pz         

 Vector   11  Occ=0.000000D+00  E= 4.734572D-02  Symmetry=a'
              MO Center= -3.4D-02,  1.7D+00, -1.5D-14, r^2= 4.9D+00
   Bfn.  Coefficient  Atom+Function         Bfn.  Coefficient  Atom+Function  
  ----- ------------  ---------------      ----- ------------  ---------------
     3     11.581116  1 C  s                  4     -6.902472  1 C  s          
    32     -3.836940  3 H  s                 40     -3.836940  4 H  s          
    22      2.648678  1 C  dzz               50      2.395674  5 F  s          
    24     -2.305952  2 H  s                 17      1.763309  1 C  dxx        
    20      1.279939  1 C  dyy               38      1.020043  3 H  pz         

 Vector   12  Occ=0.000000D+00  E= 8.680988D-02  Symmetry=a"
              MO Center= -3.9D-01,  1.7D-01, -1.9D-15, r^2= 6.6D+00
   Bfn.  Coefficient  Atom+Function         Bfn.  Coefficient  Atom+Function  
  ----- ------------  ---------------      ----- ------------  ---------------
    32      1.815153  3 H  s                 40     -1.815153  4 H  s          
    38     -1.111127  3 H  pz                46     -1.111127  4 H  pz         
    59     -0.938743  5 F  pz                19      0.692175  1 C  dxz        
    10     -0.510010  1 C  pz                30     -0.475977  2 H  pz         
    21     -0.384085  1 C  dyz                7      0.308690  1 C  pz         

 Vector   13  Occ=0.000000D+00  E= 9.065357D-02  Symmetry=a'
              MO Center=  8.6D-01,  2.7D-01, -2.9D-16, r^2= 5.3D+00
   Bfn.  Coefficient  Atom+Function         Bfn.  Coefficient  Atom+Function  
  ----- ------------  ---------------      ----- ------------  ---------------
    24      1.931318  2 H  s                  3     -1.541631  1 C  s          
    28     -1.336809  2 H  px                57     -0.737964  5 F  px         
     4      0.522779  1 C  s                 38      0.477953  3 H  pz         
    46     -0.477953  4 H  pz                32     -0.402960  3 H  s          
    40     -0.402960  4 H  s                  5      0.345032  1 C  px         

 Vector   14  Occ=0.000000D+00  E= 1.132056D-01  Symmetry=a'
              MO Center= -6.4D-01, -6.1D-01, -1.7D-14, r^2= 6.0D+00
   Bfn.  Coefficient  Atom+Function         Bfn.  Coefficient  Atom+Function  
  ----- ------------  ---------------      ----- ------------  ---------------
    50      2.433369  5 F  s                  4     -2.315479  1 C  s          
     3      2.295898  1 C  s                 24     -1.840315  2 H  s          
    58      1.664552  5 F  py                28      0.822375  2 H  px         
    57      0.637253  5 F  px                29      0.533777  2 H  py         
    32     -0.515941  3 H  s                 40     -0.515941  4 H  s          

 Vector   15  Occ=0.000000D+00  E= 1.354230D-01  Symmetry=a'
              MO Center= -1.0D-01, -6.2D-01, -5.5D-16, r^2= 6.3D+00
   Bfn.  Coefficient  Atom+Function         Bfn.  Coefficient  Atom+Function  
  ----- ------------  ---------------      ----- ------------  ---------------
    50      2.880466  5 F  s                  3      2.471443  1 C  s          
    32     -2.340243  3 H  s                 40     -2.340243  4 H  s          
    58      1.977531  5 F  py                 4     -1.506810  1 C  s          
    22      0.971704  1 C  dzz               36     -0.670447  3 H  px         
    44     -0.670447  4 H  px                24     -0.596163  2 H  s          

 Vector   16  Occ=0.000000D+00  E= 1.408962D-01  Symmetry=a"
              MO Center=  4.4D-01,  6.0D-01,  6.7D-15, r^2= 5.2D+00
   Bfn.  Coefficient  Atom+Function         Bfn.  Coefficient  Atom+Function  
  ----- ------------  ---------------      ----- ------------  ---------------
    19      2.492367  1 C  dxz               32      1.729458  3 H  s          
    40     -1.729458  4 H  s                 30     -1.564239  2 H  pz         
    36     -1.062686  3 H  px                44      1.062686  4 H  px         
    38     -0.381778  3 H  pz                46     -0.381778  4 H  pz         
    59     -0.264174  5 F  pz                21     -0.261355  1 C  dyz        

 Vector   17  Occ=0.000000D+00  E= 2.048370D-01  Symmetry=a"
              MO Center= -2.9D-01,  7.9D-02, -6.1D-14, r^2= 6.3D+00
   Bfn.  Coefficient  Atom+Function         Bfn.  Coefficient  Atom+Function  
  ----- ------------  ---------------      ----- ------------  ---------------
    32      1.521514  3 H  s                 40     -1.521514  4 H  s          
    59     -1.148978  5 F  pz                21     -0.932415  1 C  dyz        
    37      0.801223  3 H  py                45     -0.801223  4 H  py         
    10     -0.785171  1 C  pz                19      0.405789  1 C  dxz        
    30      0.250917  2 H  pz                56      0.244239  5 F  pz         

 Vector   18  Occ=0.000000D+00  E= 2.144954D-01  Symmetry=a'
              MO Center=  3.1D-01,  6.4D-02, -3.2D-14, r^2= 6.3D+00
   Bfn.  Coefficient  Atom+Function         Bfn.  Coefficient  Atom+Function  
  ----- ------------  ---------------      ----- ------------  ---------------
    24      2.202706  2 H  s                 57     -1.219233  5 F  px         
     8     -0.762434  1 C  px                29      0.756490  2 H  py         
    50      0.614718  5 F  s                  3     -0.594207  1 C  s          
    17     -0.577529  1 C  dxx               32     -0.556665  3 H  s          
    40     -0.556665  4 H  s                 18     -0.460639  1 C  dxy        

 Vector   19  Occ=0.000000D+00  E= 2.518960D-01  Symmetry=a'
              MO Center= -2.5D-01,  9.1D-01, -7.2D-14, r^2= 5.8D+00
   Bfn.  Coefficient  Atom+Function         Bfn.  Coefficient  Atom+Function  
  ----- ------------  ---------------      ----- ------------  ---------------
     3     34.961359  1 C  s                 32    -14.786865  3 H  s          
    40    -14.786865  4 H  s                  4     -9.281753  1 C  s          
    24     -7.757279  2 H  s                 22      6.677128  1 C  dzz        
    50      4.755436  5 F  s                 38      3.983897  3 H  pz         
    46     -3.983897  4 H  pz                17      3.458644  1 C  dxx        

 Vector   20  Occ=0.000000D+00  E= 2.627840D-01  Symmetry=a'
              MO Center= -7.4D-03, -1.4D-01,  1.3D-13, r^2= 7.6D+00
   Bfn.  Coefficient  Atom+Function         Bfn.  Coefficient  Atom+Function  
  ----- ------------  ---------------      ----- ------------  ---------------
     3     25.967848  1 C  s                 32     -8.362066  3 H  s          
    40     -8.362066  4 H  s                  4     -8.002713  1 C  s          
    22      5.497991  1 C  dzz               50     -5.126037  5 F  s          
    24     -4.147726  2 H  s                 17      3.017963  1 C  dxx        
    58     -2.881504  5 F  py                20      2.631675  1 C  dyy        

 Vector   21  Occ=0.000000D+00  E= 2.939153D-01  Symmetry=a"
              MO Center= -2.5D-01,  2.2D-01, -1.7D-13, r^2= 6.7D+00
   Bfn.  Coefficient  Atom+Function         Bfn.  Coefficient  Atom+Function  
  ----- ------------  ---------------      ----- ------------  ---------------
    19      2.344719  1 C  dxz               59      1.879238  5 F  pz         
    37      1.276599  3 H  py                45     -1.276599  4 H  py         
    32      1.261733  3 H  s                 40     -1.261733  4 H  s          
    38     -1.223431  3 H  pz                46     -1.223431  4 H  pz         
    30     -1.138103  2 H  pz                36     -0.757022  3 H  px         

 Vector   22  Occ=0.000000D+00  E= 3.059977D-01  Symmetry=a'
              MO Center= -1.1D-01,  9.0D-01, -6.7D-13, r^2= 6.9D+00
   Bfn.  Coefficient  Atom+Function         Bfn.  Coefficient  Atom+Function  
  ----- ------------  ---------------      ----- ------------  ---------------
     3      8.445257  1 C  s                  4      7.601547  1 C  s          
    50     -6.797795  5 F  s                 32     -5.149555  3 H  s          
    40     -5.149555  4 H  s                 24     -2.793362  2 H  s          
    49      2.657266  5 F  s                 20     -2.173410  1 C  dyy        
    58     -1.642708  5 F  py                38      1.308516  3 H  pz         

 Vector   23  Occ=0.000000D+00  E= 3.136917D-01  Symmetry=a'
              MO Center=  3.0D-01,  2.9D-01,  3.1D-14, r^2= 6.5D+00
   Bfn.  Coefficient  Atom+Function         Bfn.  Coefficient  Atom+Function  
  ----- ------------  ---------------      ----- ------------  ---------------
     3      2.243888  1 C  s                 57      1.721499  5 F  px         
    29      1.705437  2 H  py                32     -1.511845  3 H  s          
    40     -1.511845  4 H  s                 50      1.223777  5 F  s          
    36     -1.107885  3 H  px                44     -1.107885  4 H  px         
    22      1.040018  1 C  dzz                4     -0.893719  1 C  s          

 Vector   24  Occ=0.000000D+00  E= 3.353815D-01  Symmetry=a"
              MO Center=  1.5D-01,  6.0D-01, -4.0D-14, r^2= 6.1D+00
   Bfn.  Coefficient  Atom+Function         Bfn.  Coefficient  Atom+Function  
  ----- ------------  ---------------      ----- ------------  ---------------
    32      1.620032  3 H  s                 40     -1.620032  4 H  s          
    30      1.386838  2 H  pz                36     -1.209316  3 H  px         
    44      1.209316  4 H  px                10     -1.073211  1 C  pz         
    19      1.053200  1 C  dxz               38     -0.970903  3 H  pz         
    46     -0.970903  4 H  pz                59     -0.629738  5 F  pz         

 Vector   25  Occ=0.000000D+00  E= 3.369688D-01  Symmetry=a'
              MO Center=  8.4D-01,  7.9D-01,  9.1D-14, r^2= 5.1D+00
   Bfn.  Coefficient  Atom+Function         Bfn.  Coefficient  Atom+Function  
  ----- ------------  ---------------      ----- ------------  ---------------
    24      6.287322  2 H  s                 28     -3.441526  2 H  px         
     8     -3.351165  1 C  px                32     -1.826453  3 H  s          
    40     -1.826453  4 H  s                 38      1.638283  3 H  pz         
    46     -1.638283  4 H  pz                 3     -1.611626  1 C  s          
     4     -1.491674  1 C  s                 50      1.433334  5 F  s          

 Vector   26  Occ=0.000000D+00  E= 3.736507D-01  Symmetry=a'
              MO Center= -4.2D-01,  7.8D-01, -7.1D-13, r^2= 5.7D+00
   Bfn.  Coefficient  Atom+Function         Bfn.  Coefficient  Atom+Function  
  ----- ------------  ---------------      ----- ------------  ---------------
    50      6.017809  5 F  s                 24      5.637386  2 H  s          
     3     -4.389199  1 C  s                 17     -3.881059  1 C  dxx        
    49     -2.766080  5 F  s                 58      2.121967  5 F  py         
    22     -1.578739  1 C  dzz                9     -1.456875  1 C  py         
     4      1.434167  1 C  s                 36     -1.282882  3 H  px         

 Vector   27  Occ=0.000000D+00  E= 3.776473D-01  Symmetry=a"
              MO Center= -6.7D-01,  7.6D-01,  1.3D-12, r^2= 5.7D+00
   Bfn.  Coefficient  Atom+Function         Bfn.  Coefficient  Atom+Function  
  ----- ------------  ---------------      ----- ------------  ---------------
    32      6.289049  3 H  s                 40     -6.289049  4 H  s          
    10     -4.416917  1 C  pz                38     -2.761066  3 H  pz         
    46     -2.761066  4 H  pz                36      1.994450  3 H  px         
    44     -1.994450  4 H  px                19     -1.946290  1 C  dxz        
    21      1.311447  1 C  dyz               37     -0.865554  3 H  py         

 Vector   28  Occ=0.000000D+00  E= 3.845583D-01  Symmetry=a'
              MO Center= -3.8D-01,  6.2D-01,  7.5D-16, r^2= 5.2D+00
   Bfn.  Coefficient  Atom+Function         Bfn.  Coefficient  Atom+Function  
  ----- ------------  ---------------      ----- ------------  ---------------
    50      3.947580  5 F  s                 24     -3.660911  2 H  s          
    18      3.511485  1 C  dxy                3      2.396002  1 C  s          
    32     -1.513360  3 H  s                 40     -1.513360  4 H  s          
    37      1.414771  3 H  py                45      1.414771  4 H  py         
    22      1.312775  1 C  dzz               29     -1.151272  2 H  py         

 Vector   29  Occ=0.000000D+00  E= 4.217459D-01  Symmetry=a"
              MO Center=  2.3D-01,  7.5D-01, -6.8D-15, r^2= 5.4D+00
   Bfn.  Coefficient  Atom+Function         Bfn.  Coefficient  Atom+Function  
  ----- ------------  ---------------      ----- ------------  ---------------
    21      5.736793  1 C  dyz               19      4.566806  1 C  dxz        
    37     -2.686810  3 H  py                45      2.686810  4 H  py         
    32      2.445050  3 H  s                 40     -2.445050  4 H  s          
    30     -1.919207  2 H  pz                36     -1.041857  3 H  px         
    44      1.041857  4 H  px                38     -0.479265  3 H  pz         

 Vector   30  Occ=0.000000D+00  E= 4.272947D-01  Symmetry=a'
              MO Center=  2.5D-01, -5.9D-02, -2.2D-14, r^2= 7.5D+00
   Bfn.  Coefficient  Atom+Function         Bfn.  Coefficient  Atom+Function  
  ----- ------------  ---------------      ----- ------------  ---------------
    50     17.894398  5 F  s                  3     12.442900  1 C  s          
    24     -9.708169  2 H  s                  4     -6.881853  1 C  s          
    58      4.935686  5 F  py                49     -4.378336  5 F  s          
    32     -4.332473  3 H  s                 40     -4.332473  4 H  s          
    29      3.519789  2 H  py                28      3.049800  2 H  px         

 Vector   31  Occ=0.000000D+00  E= 4.538127D-01  Symmetry=a"
              MO Center=  7.6D-01,  3.9D-01,  1.8D-13, r^2= 5.3D+00
   Bfn.  Coefficient  Atom+Function         Bfn.  Coefficient  Atom+Function  
  ----- ------------  ---------------      ----- ------------  ---------------
    19     11.048231  1 C  dxz               32     10.246785  3 H  s          
    40    -10.246785  4 H  s                 30     -4.587527  2 H  pz         
    38     -3.151153  3 H  pz                46     -3.151153  4 H  pz         
    10     -3.124547  1 C  pz                21     -2.224889  1 C  dyz        
    36     -1.879498  3 H  px                44      1.879498  4 H  px         

 Vector   32  Occ=0.000000D+00  E= 4.723746D-01  Symmetry=a'
              MO Center= -1.4D-01,  5.1D-01,  2.0D-14, r^2= 6.3D+00
   Bfn.  Coefficient  Atom+Function         Bfn.  Coefficient  Atom+Function  
  ----- ------------  ---------------      ----- ------------  ---------------
    24     11.615087  2 H  s                 32     -8.379310  3 H  s          
    40     -8.379310  4 H  s                 50      5.302338  5 F  s          
    22      4.984392  1 C  dzz                3     -4.628554  1 C  s          
    17     -3.788032  1 C  dxx               28     -3.706632  2 H  px         
     4      3.001587  1 C  s                 36     -2.968946  3 H  px         

 Vector   33  Occ=0.000000D+00  E= 5.173044D-01  Symmetry=a'
              MO Center=  1.5D-01,  8.0D-01,  4.2D-14, r^2= 5.3D+00
   Bfn.  Coefficient  Atom+Function         Bfn.  Coefficient  Atom+Function  
  ----- ------------  ---------------      ----- ------------  ---------------
     3     71.846987  1 C  s                 32    -34.834232  3 H  s          
    40    -34.834232  4 H  s                 22     18.948713  1 C  dzz        
    24    -13.736514  2 H  s                  4    -11.313671  1 C  s          
    17      7.053577  1 C  dxx               20      6.034195  1 C  dyy        
    38      6.046299  3 H  pz                46     -6.046299  4 H  pz         

 Vector   34  Occ=0.000000D+00  E= 6.970038D-01  Symmetry=a'
              MO Center= -2.7D-02, -1.1D+00,  1.2D-14, r^2= 3.9D+00
   Bfn.  Coefficient  Atom+Function         Bfn.  Coefficient  Atom+Function  
  ----- ------------  ---------------      ----- ------------  ---------------
     3     16.523559  1 C  s                 50     16.502781  5 F  s          
    32     -7.461949  3 H  s                 40     -7.461949  4 H  s          
    49     -6.539552  5 F  s                  4     -6.046204  1 C  s          
    69     -4.377941  5 F  dyy               71     -3.846358  5 F  dzz        
    24     -3.682265  2 H  s                 66     -3.592057  5 F  dxx        

 Vector   35  Occ=0.000000D+00  E= 7.019176D-01  Symmetry=a'
              MO Center=  1.2D-02, -2.7D-01,  9.9D-13, r^2= 4.4D+00
   Bfn.  Coefficient  Atom+Function         Bfn.  Coefficient  Atom+Function  
  ----- ------------  ---------------      ----- ------------  ---------------
     3     38.875984  1 C  s                 32    -16.738598  3 H  s          
    40    -16.738598  4 H  s                 22      7.902098  1 C  dzz        
    24     -7.150750  2 H  s                 50     -4.273736  5 F  s          
     4     -4.016660  1 C  s                  9     -3.611716  1 C  py         
    38      3.314500  3 H  pz                46     -3.314500  4 H  pz         

 Vector   36  Occ=0.000000D+00  E= 7.373427D-01  Symmetry=a'
              MO Center= -1.7D-01, -3.5D-01, -7.7D-14, r^2= 4.2D+00
   Bfn.  Coefficient  Atom+Function         Bfn.  Coefficient  Atom+Function  
  ----- ------------  ---------------      ----- ------------  ---------------
     3     13.236671  1 C  s                 24     -9.935782  2 H  s          
     8      4.665526  1 C  px                28      3.183987  2 H  px         
     4     -2.860620  1 C  s                 17      2.612140  1 C  dxx        
    67     -2.366838  5 F  dxy                9     -1.446482  1 C  py         
    57     -1.206947  5 F  px                49     -1.193251  5 F  s          

 Vector   37  Occ=0.000000D+00  E= 7.407293D-01  Symmetry=a"
              MO Center= -2.5D-02, -1.2D-01, -7.8D-13, r^2= 4.0D+00
   Bfn.  Coefficient  Atom+Function         Bfn.  Coefficient  Atom+Function  
  ----- ------------  ---------------      ----- ------------  ---------------
    32      6.599222  3 H  s                 40     -6.599222  4 H  s          
    10     -5.377254  1 C  pz                19      3.478476  1 C  dxz        
    38     -2.272041  3 H  pz                46     -2.272041  4 H  pz         
    70      2.263434  5 F  dyz               30     -1.471966  2 H  pz         
    59      1.083628  5 F  pz                37      1.000186  3 H  py         

 Vector   38  Occ=0.000000D+00  E= 7.485120D-01  Symmetry=a"
              MO Center= -3.2D-01, -5.7D-01,  1.8D-14, r^2= 3.4D+00
   Bfn.  Coefficient  Atom+Function         Bfn.  Coefficient  Atom+Function  
  ----- ------------  ---------------      ----- ------------  ---------------
    21      4.021988  1 C  dyz               19     -3.360327  1 C  dxz        
    68      2.137535  5 F  dxz               37     -1.857077  3 H  py         
    45      1.857077  4 H  py                10     -1.402757  1 C  pz         
    70      1.319849  5 F  dyz               36      0.810931  3 H  px         
    44     -0.810931  4 H  px                30      0.796476  2 H  pz         

 Vector   39  Occ=0.000000D+00  E= 7.764386D-01  Symmetry=a'
              MO Center=  3.1D-01, -5.2D-01,  3.6D-15, r^2= 3.3D+00
   Bfn.  Coefficient  Atom+Function         Bfn.  Coefficient  Atom+Function  
  ----- ------------  ---------------      ----- ------------  ---------------
     3      5.208444  1 C  s                 18     -2.750204  1 C  dxy        
    50     -2.668229  5 F  s                 32     -2.630716  3 H  s          
    40     -2.630716  4 H  s                 22      2.155397  1 C  dzz        
    66      1.603939  5 F  dxx               29      1.490703  2 H  py         
    37     -1.119017  3 H  py                45     -1.119017  4 H  py         

 Vector   40  Occ=0.000000D+00  E= 8.840865D-01  Symmetry=a"
              MO Center= -1.8D-01,  1.9D-01,  1.1D-13, r^2= 3.7D+00
   Bfn.  Coefficient  Atom+Function         Bfn.  Coefficient  Atom+Function  
  ----- ------------  ---------------      ----- ------------  ---------------
    32      5.609281  3 H  s                 40     -5.609281  4 H  s          
    10     -4.202712  1 C  pz                19     -2.966516  1 C  dxz        
    36      1.694853  3 H  px                44     -1.694853  4 H  px         
    38     -1.599002  3 H  pz                46     -1.599002  4 H  pz         
    59     -1.442185  5 F  pz                70     -1.017395  5 F  dyz        

 Vector   41  Occ=0.000000D+00  E= 9.246451D-01  Symmetry=a'
              MO Center= -2.8D-02,  6.9D-01, -1.1D-14, r^2= 4.0D+00
   Bfn.  Coefficient  Atom+Function         Bfn.  Coefficient  Atom+Function  
  ----- ------------  ---------------      ----- ------------  ---------------
     3     10.121899  1 C  s                 32     -3.752597  3 H  s          
    40     -3.752597  4 H  s                 17      3.058628  1 C  dxx        
    38      2.974164  3 H  pz                46     -2.974164  4 H  pz         
    22     -2.883096  1 C  dzz               50      2.483955  5 F  s          
     4     -2.012738  1 C  s                 24     -1.602397  2 H  s          

 Vector   42  Occ=0.000000D+00  E= 9.411781D-01  Symmetry=a'
              MO Center=  5.1D-01,  4.8D-01,  2.4D-14, r^2= 3.5D+00
   Bfn.  Coefficient  Atom+Function         Bfn.  Coefficient  Atom+Function  
  ----- ------------  ---------------      ----- ------------  ---------------
     3     34.304671  1 C  s                 24    -19.175324  2 H  s          
    32    -11.081468  3 H  s                 40    -11.081468  4 H  s          
    28      5.363408  2 H  px                 8      5.040140  1 C  px         
    22      4.232455  1 C  dzz               17      3.060845  1 C  dxx        
    38      2.283455  3 H  pz                46     -2.283455  4 H  pz         

 Vector   43  Occ=0.000000D+00  E= 9.754373D-01  Symmetry=a'
              MO Center= -4.5D-01,  7.2D-01,  7.3D-14, r^2= 3.4D+00
   Bfn.  Coefficient  Atom+Function         Bfn.  Coefficient  Atom+Function  
  ----- ------------  ---------------      ----- ------------  ---------------
     3     26.298716  1 C  s                 32    -17.682778  3 H  s          
    40    -17.682778  4 H  s                 22      6.487912  1 C  dzz        
     8     -4.137509  1 C  px                 4      3.044341  1 C  s          
    38      2.800078  3 H  pz                46     -2.800078  4 H  pz         
    36     -2.453262  3 H  px                44     -2.453262  4 H  px         

 Vector   44  Occ=0.000000D+00  E= 1.016987D+00  Symmetry=a'
              MO Center= -2.0D-02,  3.1D-01, -1.8D-13, r^2= 3.9D+00
   Bfn.  Coefficient  Atom+Function         Bfn.  Coefficient  Atom+Function  
  ----- ------------  ---------------      ----- ------------  ---------------
     3     42.031219  1 C  s                 32    -19.147052  3 H  s          
    40    -19.147052  4 H  s                 24    -10.213382  2 H  s          
     4     -9.687055  1 C  s                 50      8.835893  5 F  s          
    22      8.693500  1 C  dzz               49     -5.984909  5 F  s          
    20      5.146252  1 C  dyy                9     -4.986690  1 C  py         

 Vector   45  Occ=0.000000D+00  E= 1.146727D+00  Symmetry=a"
              MO Center= -4.2D-02,  7.8D-01, -1.8D-13, r^2= 3.1D+00
   Bfn.  Coefficient  Atom+Function         Bfn.  Coefficient  Atom+Function  
  ----- ------------  ---------------      ----- ------------  ---------------
    32     10.835705  3 H  s                 40    -10.835705  4 H  s          
    19     10.498053  1 C  dxz               10     -7.393501  1 C  pz         
    38     -3.009219  3 H  pz                46     -3.009219  4 H  pz         
    30     -2.972395  2 H  pz                36     -1.719770  3 H  px         
    44      1.719770  4 H  px                31      1.064872  3 H  s          

 Vector   46  Occ=0.000000D+00  E= 1.315300D+00  Symmetry=a'
              MO Center=  1.2D-01,  2.9D-01,  2.4D-13, r^2= 3.0D+00
   Bfn.  Coefficient  Atom+Function         Bfn.  Coefficient  Atom+Function  
  ----- ------------  ---------------      ----- ------------  ---------------
     3     32.282623  1 C  s                 32    -18.536263  3 H  s          
    40    -18.536263  4 H  s                 22     11.182606  1 C  dzz        
     4     -6.502511  1 C  s                 24     -6.344173  2 H  s          
    50     -5.915792  5 F  s                 17      5.429694  1 C  dxx        
    20      3.458812  1 C  dyy               38      3.253586  3 H  pz         

 Vector   47  Occ=0.000000D+00  E= 1.359936D+00  Symmetry=a'
              MO Center=  1.4D-01,  1.8D-01, -1.0D-11, r^2= 2.5D+00
   Bfn.  Coefficient  Atom+Function         Bfn.  Coefficient  Atom+Function  
  ----- ------------  ---------------      ----- ------------  ---------------
     3     19.379979  1 C  s                 32     -8.994295  3 H  s          
    40     -8.994295  4 H  s                 24     -7.312787  2 H  s          
    22      5.929307  1 C  dzz               50     -4.749790  5 F  s          
    17      3.925445  1 C  dxx                4     -3.872851  1 C  s          
    49      2.414543  5 F  s                 20      2.164964  1 C  dyy        

 Vector   48  Occ=0.000000D+00  E= 1.359956D+00  Symmetry=a"
              MO Center=  1.4D-02, -2.4D-02,  1.0D-11, r^2= 2.3D+00
   Bfn.  Coefficient  Atom+Function         Bfn.  Coefficient  Atom+Function  
  ----- ------------  ---------------      ----- ------------  ---------------
    32      4.379562  3 H  s                 40     -4.379562  4 H  s          
    19      2.712996  1 C  dxz               21     -2.581211  1 C  dyz        
    10     -2.548405  1 C  pz                38     -1.523862  3 H  pz         
    46     -1.523862  4 H  pz                56     -1.049752  5 F  pz         
    30     -0.978588  2 H  pz                37      0.882134  3 H  py         

 Vector   49  Occ=0.000000D+00  E= 1.578459D+00  Symmetry=a"
              MO Center= -1.5D-01,  6.5D-01, -7.4D-15, r^2= 2.0D+00
   Bfn.  Coefficient  Atom+Function         Bfn.  Coefficient  Atom+Function  
  ----- ------------  ---------------      ----- ------------  ---------------
    19      3.769376  1 C  dxz               30     -1.736396  2 H  pz         
    10      1.225800  1 C  pz                21     -0.730899  1 C  dyz        
    36     -0.704483  3 H  px                44      0.704483  4 H  px         
    13     -0.646791  1 C  dxz               32      0.596932  3 H  s          
    40     -0.596932  4 H  s                 33     -0.554359  3 H  px         

 Vector   50  Occ=0.000000D+00  E= 1.727856D+00  Symmetry=a"
              MO Center=  3.1D-01,  4.7D-01, -3.6D-14, r^2= 1.9D+00
   Bfn.  Coefficient  Atom+Function         Bfn.  Coefficient  Atom+Function  
  ----- ------------  ---------------      ----- ------------  ---------------
    32      3.038205  3 H  s                 40     -3.038205  4 H  s          
    10     -2.516637  1 C  pz                38     -0.954004  3 H  pz         
    46     -0.954004  4 H  pz                27      0.771205  2 H  pz         
    70     -0.698747  5 F  dyz               36      0.606410  3 H  px         
    44     -0.606410  4 H  px                15     -0.496418  1 C  dyz        

 Vector   51  Occ=0.000000D+00  E= 1.730403D+00  Symmetry=a'
              MO Center= -4.5D-02,  3.8D-01,  2.1D-14, r^2= 2.0D+00
   Bfn.  Coefficient  Atom+Function         Bfn.  Coefficient  Atom+Function  
  ----- ------------  ---------------      ----- ------------  ---------------
     3      7.318349  1 C  s                 24     -5.399033  2 H  s          
    32     -2.548543  3 H  s                 40     -2.548543  4 H  s          
     4     -1.871770  1 C  s                 50      1.842502  5 F  s          
    28      1.592604  2 H  px                17      1.522782  1 C  dxx        
    22      1.529783  1 C  dzz                8      1.476499  1 C  px         

 Vector   52  Occ=0.000000D+00  E= 1.803479D+00  Symmetry=a'
              MO Center=  1.5D-01,  3.3D-01, -5.3D-15, r^2= 2.3D+00
   Bfn.  Coefficient  Atom+Function         Bfn.  Coefficient  Atom+Function  
  ----- ------------  ---------------      ----- ------------  ---------------
     3      9.920778  1 C  s                  9     -3.207312  1 C  py         
    50     -3.049816  5 F  s                 49     -2.802800  5 F  s          
    24     -2.388454  2 H  s                 55     -1.779829  5 F  py         
    20      1.330285  1 C  dyy               58     -1.119373  5 F  py         
    32     -0.993862  3 H  s                 40     -0.993862  4 H  s          

 Vector   53  Occ=0.000000D+00  E= 1.987033D+00  Symmetry=a'
              MO Center= -3.9D-02,  3.8D-01,  1.4D-15, r^2= 2.3D+00
   Bfn.  Coefficient  Atom+Function         Bfn.  Coefficient  Atom+Function  
  ----- ------------  ---------------      ----- ------------  ---------------
    24      5.028119  2 H  s                 32     -4.597525  3 H  s          
    40     -4.597525  4 H  s                  8     -4.259097  1 C  px         
    22      3.012913  1 C  dzz                3      1.630159  1 C  s          
    50     -1.441129  5 F  s                 28     -1.208379  2 H  px         
    17     -1.201246  1 C  dxx               54      1.184039  5 F  px         

 Vector   54  Occ=0.000000D+00  E= 2.018638D+00  Symmetry=a"
              MO Center=  5.6D-02,  1.8D-01,  5.1D-15, r^2= 2.3D+00
   Bfn.  Coefficient  Atom+Function         Bfn.  Coefficient  Atom+Function  
  ----- ------------  ---------------      ----- ------------  ---------------
    10      5.859958  1 C  pz                32     -5.298023  3 H  s          
    40      5.298023  4 H  s                 19     -2.927617  1 C  dxz        
    70     -1.740140  5 F  dyz               56     -1.536836  5 F  pz         
    38      1.513709  3 H  pz                46      1.513709  4 H  pz         
    21     -1.311395  1 C  dyz               30      0.890993  2 H  pz         

 Vector   55  Occ=0.000000D+00  E= 2.078085D+00  Symmetry=a'
              MO Center= -1.5D-01,  3.7D-01, -5.8D-14, r^2= 2.1D+00
   Bfn.  Coefficient  Atom+Function         Bfn.  Coefficient  Atom+Function  
  ----- ------------  ---------------      ----- ------------  ---------------
     3     28.159719  1 C  s                 32    -12.001090  3 H  s          
    40    -12.001090  4 H  s                 24     -6.958554  2 H  s          
    22      4.431424  1 C  dzz               49     -2.967209  5 F  s          
     4     -2.737420  1 C  s                 38      2.630407  3 H  pz         
    46     -2.630407  4 H  pz                17      2.537812  1 C  dxx        

 Vector   56  Occ=0.000000D+00  E= 2.091454D+00  Symmetry=a'
              MO Center= -3.0D-02, -9.8D-01,  8.0D-17, r^2= 1.9D+00
   Bfn.  Coefficient  Atom+Function         Bfn.  Coefficient  Atom+Function  
  ----- ------------  ---------------      ----- ------------  ---------------
    50      9.158831  5 F  s                  3      7.672043  1 C  s          
    69     -3.305704  5 F  dyy               71     -3.194381  5 F  dzz        
     4     -3.136566  1 C  s                 66     -3.097949  5 F  dxx        
    24     -2.502411  2 H  s                  9     -2.414286  1 C  py         
    32     -2.372060  3 H  s                 40     -2.372060  4 H  s          

 Vector   57  Occ=0.000000D+00  E= 2.173894D+00  Symmetry=a'
              MO Center=  9.0D-02,  4.9D-01, -9.1D-16, r^2= 1.9D+00
   Bfn.  Coefficient  Atom+Function         Bfn.  Coefficient  Atom+Function  
  ----- ------------  ---------------      ----- ------------  ---------------
     3     14.099807  1 C  s                 24     -6.143171  2 H  s          
    32     -4.084772  3 H  s                 40     -4.084772  4 H  s          
    22      2.383062  1 C  dzz               49     -2.044506  5 F  s          
    28      1.950250  2 H  px                50     -1.858375  5 F  s          
     9     -1.630132  1 C  py                 8      1.058523  1 C  px         

 Vector   58  Occ=0.000000D+00  E= 2.197772D+00  Symmetry=a'
              MO Center=  1.2D-01,  4.6D-01, -2.0D-15, r^2= 1.5D+00
   Bfn.  Coefficient  Atom+Function         Bfn.  Coefficient  Atom+Function  
  ----- ------------  ---------------      ----- ------------  ---------------
    32     -3.242635  3 H  s                 40     -3.242635  4 H  s          
     3      3.045069  1 C  s                  8     -1.894079  1 C  px         
    50      1.897373  5 F  s                 12      1.695213  1 C  dxy        
    22      1.532250  1 C  dzz                4     -0.949189  1 C  s          
    24      0.863080  2 H  s                 67      0.851289  5 F  dxy        

 Vector   59  Occ=0.000000D+00  E= 2.303111D+00  Symmetry=a"
              MO Center= -1.8D-01,  5.5D-01, -2.3D-15, r^2= 1.4D+00
   Bfn.  Coefficient  Atom+Function         Bfn.  Coefficient  Atom+Function  
  ----- ------------  ---------------      ----- ------------  ---------------
    15      1.653121  1 C  dyz               34     -0.654088  3 H  py         
    42      0.654088  4 H  py                19     -0.633696  1 C  dxz        
    32     -0.429029  3 H  s                 40      0.429029  4 H  s          
    64     -0.350888  5 F  dyz               37      0.274130  3 H  py         
    45     -0.274130  4 H  py                70      0.264052  5 F  dyz        

 Vector   60  Occ=0.000000D+00  E= 2.387882D+00  Symmetry=a'
              MO Center=  1.9D-01,  1.9D-01,  9.8D-17, r^2= 1.7D+00
   Bfn.  Coefficient  Atom+Function         Bfn.  Coefficient  Atom+Function  
  ----- ------------  ---------------      ----- ------------  ---------------
     3     13.097073  1 C  s                 32     -7.395697  3 H  s          
    40     -7.395697  4 H  s                 22      3.903329  1 C  dzz        
    24     -3.180910  2 H  s                  4     -2.437668  1 C  s          
    17      1.749003  1 C  dxx               20      1.710507  1 C  dyy        
    55      1.561828  5 F  py                38      1.300026  3 H  pz         

 Vector   61  Occ=0.000000D+00  E= 2.412838D+00  Symmetry=a"
              MO Center= -8.2D-03,  6.4D-01,  1.0D-13, r^2= 1.8D+00
   Bfn.  Coefficient  Atom+Function         Bfn.  Coefficient  Atom+Function  
  ----- ------------  ---------------      ----- ------------  ---------------
    32     -2.324178  3 H  s                 40      2.324178  4 H  s          
    10      2.303690  1 C  pz                19      1.700496  1 C  dxz        
     7      0.799805  1 C  pz                36     -0.764201  3 H  px         
    44      0.764201  4 H  px                27     -0.749359  2 H  pz         
    38      0.691827  3 H  pz                46      0.691827  4 H  pz         

 Vector   62  Occ=0.000000D+00  E= 2.859654D+00  Symmetry=a"
              MO Center= -1.1D-01,  6.2D-01,  1.6D-13, r^2= 1.3D+00
   Bfn.  Coefficient  Atom+Function         Bfn.  Coefficient  Atom+Function  
  ----- ------------  ---------------      ----- ------------  ---------------
    32      2.940759  3 H  s                 40     -2.940759  4 H  s          
    10     -2.151039  1 C  pz                13      2.121270  1 C  dxz        
    19      1.924884  1 C  dxz               35     -0.914476  3 H  pz         
    43     -0.914476  4 H  pz                31      0.905569  3 H  s          
    39     -0.905569  4 H  s                  7     -0.886720  1 C  pz         

 Vector   63  Occ=0.000000D+00  E= 2.884412D+00  Symmetry=a'
              MO Center=  4.4D-01,  5.7D-01, -2.2D-13, r^2= 1.3D+00
   Bfn.  Coefficient  Atom+Function         Bfn.  Coefficient  Atom+Function  
  ----- ------------  ---------------      ----- ------------  ---------------
     3     12.440131  1 C  s                 24     -6.379653  2 H  s          
    32     -4.856016  3 H  s                 40     -4.856016  4 H  s          
    22      2.215747  1 C  dzz                8      1.815345  1 C  px         
    28      1.714301  2 H  px                25      1.477541  2 H  px         
    23     -1.227839  2 H  s                 17      1.141741  1 C  dxx        

 Vector   64  Occ=0.000000D+00  E= 3.212452D+00  Symmetry=a'
              MO Center= -1.3D-01,  4.7D-01, -1.9D-14, r^2= 1.4D+00
   Bfn.  Coefficient  Atom+Function         Bfn.  Coefficient  Atom+Function  
  ----- ------------  ---------------      ----- ------------  ---------------
     3      7.719880  1 C  s                 32     -4.695508  3 H  s          
    40     -4.695508  4 H  s                 22      1.727895  1 C  dzz        
    16      1.495700  1 C  dzz                8     -1.295590  1 C  px         
    31     -1.008136  3 H  s                 39     -1.008136  4 H  s          
    11     -0.955698  1 C  dxx               35      0.870573  3 H  pz         

 Vector   65  Occ=0.000000D+00  E= 3.376338D+00  Symmetry=a"
              MO Center= -2.3D-02, -6.3D-01, -7.7D-17, r^2= 5.9D-01
   Bfn.  Coefficient  Atom+Function         Bfn.  Coefficient  Atom+Function  
  ----- ------------  ---------------      ----- ------------  ---------------
    62      1.796867  5 F  dxz               21     -0.887019  1 C  dyz        
    68     -0.823733  5 F  dxz               19      0.623463  1 C  dxz        
    37      0.487283  3 H  py                45     -0.487283  4 H  py         
    13     -0.284160  1 C  dxz               64      0.220704  5 F  dyz        
    10      0.177060  1 C  pz                30     -0.154428  2 H  pz         

 Vector   66  Occ=0.000000D+00  E= 3.400633D+00  Symmetry=a'
              MO Center=  6.9D-04, -5.8D-01,  1.7D-16, r^2= 7.0D-01
   Bfn.  Coefficient  Atom+Function         Bfn.  Coefficient  Atom+Function  
  ----- ------------  ---------------      ----- ------------  ---------------
    60      0.899829  5 F  dxx               65     -0.854701  5 F  dzz        
    18      0.645048  1 C  dxy               50      0.604884  5 F  s          
    66     -0.579181  5 F  dxx               22     -0.566204  1 C  dzz        
    29     -0.433315  2 H  py                 8     -0.391463  1 C  px         
    16      0.372231  1 C  dzz               24      0.346475  2 H  s          

 Vector   67  Occ=0.000000D+00  E= 3.561388D+00  Symmetry=a'
              MO Center= -1.4D-02, -4.7D-01, -4.5D-17, r^2= 8.9D-01
   Bfn.  Coefficient  Atom+Function         Bfn.  Coefficient  Atom+Function  
  ----- ------------  ---------------      ----- ------------  ---------------
    24      2.817716  2 H  s                 61      1.760200  5 F  dxy        
    32     -1.504012  3 H  s                 40     -1.504012  4 H  s          
     8     -1.483661  1 C  px                67     -0.717575  5 F  dxy        
    22      0.698592  1 C  dzz               12      0.649658  1 C  dxy        
    28     -0.650251  2 H  px                23      0.555530  2 H  s          

 Vector   68  Occ=0.000000D+00  E= 3.575203D+00  Symmetry=a"
              MO Center=  1.1D-04, -5.2D-01, -9.5D-16, r^2= 8.2D-01
   Bfn.  Coefficient  Atom+Function         Bfn.  Coefficient  Atom+Function  
  ----- ------------  ---------------      ----- ------------  ---------------
    32      2.114444  3 H  s                 40     -2.114444  4 H  s          
    64      1.803963  5 F  dyz               10     -1.595921  1 C  pz         
    15      0.761091  1 C  dyz               70     -0.745935  5 F  dyz        
    19      0.689258  1 C  dxz               38     -0.529941  3 H  pz         
    46     -0.529941  4 H  pz                59     -0.455092  5 F  pz         

 Vector   69  Occ=0.000000D+00  E= 4.042502D+00  Symmetry=a'
              MO Center= -1.5D-02, -3.0D-01,  5.8D-16, r^2= 9.8D-01
   Bfn.  Coefficient  Atom+Function         Bfn.  Coefficient  Atom+Function  
  ----- ------------  ---------------      ----- ------------  ---------------
    49      3.025956  5 F  s                  3     -2.580170  1 C  s          
     9      2.042252  1 C  py                50     -1.470996  5 F  s          
    55      1.454460  5 F  py                63      1.064971  5 F  dyy        
     4      0.947589  1 C  s                 14     -0.837761  1 C  dyy        
    16      0.777510  1 C  dzz               66      0.692848  5 F  dxx        

 Vector   70  Occ=0.000000D+00  E= 5.332892D+00  Symmetry=a'
              MO Center= -3.9D-02,  6.7D-01,  5.2D-16, r^2= 6.4D-01
   Bfn.  Coefficient  Atom+Function         Bfn.  Coefficient  Atom+Function  
  ----- ------------  ---------------      ----- ------------  ---------------
     3     -3.991517  1 C  s                  2      3.658720  1 C  s          
    16     -2.274268  1 C  dzz               11     -1.992313  1 C  dxx        
    14     -1.963939  1 C  dyy               32      1.385724  3 H  s          
    40      1.385724  4 H  s                  4      1.298355  1 C  s          
    22     -1.181172  1 C  dzz               50      0.960104  5 F  s          

 Vector   71  Occ=0.000000D+00  E= 7.323939D+00  Symmetry=a'
              MO Center= -6.6D-03, -6.5D-01, -1.7D-16, r^2= 6.2D-01
   Bfn.  Coefficient  Atom+Function         Bfn.  Coefficient  Atom+Function  
  ----- ------------  ---------------      ----- ------------  ---------------
    50      3.680598  5 F  s                 63     -1.643075  5 F  dyy        
    60     -1.611669  5 F  dxx               65     -1.612996  5 F  dzz        
    49      1.547906  5 F  s                 66     -1.371852  5 F  dxx        
    71     -1.359783  5 F  dzz               48      1.348834  5 F  s          
    69     -1.155262  5 F  dyy                4     -1.136534  1 C  s          


 center of mass
 --------------
 x =  -0.01467448 y =  -0.14384398 z =   0.00000000

 moments of inertia (a.u.)
 ------------------
          58.138900823529           0.000000000000           0.000000000000
           0.000000000000          12.586315385939           0.000000000000
           0.000000000000           0.000000000000          55.747584973798

     Multipole analysis of the density
     ---------------------------------

     L   x y z        total         alpha         beta         nuclear
     -   - - -        -----         -----         ----         -------
     0   0 0 0      0.000000     -9.000000     -9.000000     18.000000

     1   1 0 0      0.026418      0.013209      0.013209     -0.000000
     1   0 1 0      0.440177      0.220089      0.220089      0.000000
     1   0 0 1      0.000000      0.000000      0.000000      0.000000

     2   2 0 0     -9.126919     -7.083516     -7.083516      5.040113
     2   1 1 0      0.016598     -0.181076     -0.181076      0.378749
     2   1 0 1     -0.000000     -0.000000     -0.000000      0.000000
     2   0 2 0    -10.407281    -18.795155    -18.795155     27.183029
     2   0 1 1     -0.000000     -0.000000     -0.000000      0.000000
     2   0 0 2     -8.347392     -7.889031     -7.889031      7.430671


 Parallel integral file used      42 records with       0 large values


            General Information
            -------------------
          SCF calculation type: DFT
          Wavefunction type:  closed shell.
          No. of atoms     :     5
          No. of electrons :    18
           Alpha electrons :     9
            Beta electrons :     9
          Charge           :     0
          Spin multiplicity:     1
          Use of symmetry is: on ; symmetry adaption is: on 
          Maximum number of iterations: 200
          AO basis - number of functions:    71
                     number of shells:    29
          Convergence on energy requested:  1.00D-06
          Convergence on density requested:  1.00D-05
          Convergence on gradient requested:  5.00D-04

              XC Information
              --------------
                         B3LYP Method XC Potential
                     Hartree-Fock (Exact) Exchange  0.200          
                        Slater Exchange Functional  0.800 local    
                    Becke 1988 Exchange Functional  0.720 non-local
              Lee-Yang-Parr Correlation Functional  0.810          
                  VWN I RPA Correlation Functional  0.190 local    

             Grid Information
             ----------------
          Grid used for XC integration:  xfine     
          Radial quadrature: Mura-Knowles        
          Angular quadrature: Lebedev. 
          Tag              B.-S. Rad. Rad. Pts. Rad. Cut. Ang. Pts.
          ---              ---------- --------- --------- ---------
          C                   0.70      100           8.0      1454
          H                   0.35      100           8.0      1202
          F                   0.50      100           8.0      1454
          Grid pruning is: on 
          Number of quadrature shells:   400
          Spatial weights used:  Erf1

          Convergence Information
          -----------------------
          Convergence aids based upon iterative change in 
          total energy or number of iterations. 
          Levelshifting, if invoked, occurs when the 
          HOMO/LUMO gap drops below (HL_TOL):  1.00D-02
          DIIS, if invoked, will attempt to extrapolate 
          using up to (NFOCK): 10 stored Fock matrices.

                    Damping( 0%)  Levelshifting(0.5)       DIIS
                  --------------- ------------------- ---------------
          dE  on:    start            ASAP                start   
          dE off:    2 iters        200 iters           200 iters 


      Screening Tolerance Information
      -------------------------------
          Density screening/tol_rho:  1.00D-10
          AO Gaussian exp screening on grid/accAOfunc:  14
          CD Gaussian exp screening on grid/accCDfunc:  20
          XC Gaussian exp screening on grid/accXCfunc:  20
          Schwarz screening/accCoul:  1.00D-08



                            NWChem DFT Gradient Module
                            --------------------------


                                 CH3F gas opt+freq



  charge          =   0.00
  wavefunction    = closed shell

  Using symmetry


                         DFT ENERGY GRADIENTS

    atom               coordinates                        gradient
                 x          y          z           x          y          z
   1 C      -0.063154   1.227279   0.000000   -0.040854  -0.005420   0.000000
   2 H       1.977315   1.269429   0.000000   -0.020359  -0.057093   0.000000
   3 H      -0.743310   1.213230   1.927521    0.026624  -0.063045  -0.007322
   4 H      -0.743310   1.213230  -1.927521    0.026624  -0.063045   0.007322
   5 F      -0.012419  -1.228840   0.000000    0.007964   0.188602   0.000000

                 ----------------------------------------
                 |  Time  |  1-e(secs)   |  2-e(secs)   |
                 ----------------------------------------
                 |  CPU   |       0.01   |       1.68   |
                 ----------------------------------------
                 |  WALL  |       0.01   |       1.71   |
                 ----------------------------------------
  no constraints, skipping    0.0000000000000000     

@ Step       Energy      Delta E   Gmax     Grms     Xrms     Xmax   Walltime
@ ---- ---------------- -------- -------- -------- -------- -------- --------
@    0    -139.57073229  0.0D+00  0.18840  0.07070  0.00000  0.00000     99.0
                                                                    



                                Z-matrix (autoz)
                                -------- 

 Units are Angstrom for bonds and degrees for angles

      Type          Name      I     J     K     L     M      Value     Gradient
      ----------- --------  ----- ----- ----- ----- ----- ---------- ----------
    1 Stretch                  1     2                       1.08000   -0.02153
    2 Stretch                  1     3                       1.08167   -0.01533
    3 Stretch                  1     4                       1.08167   -0.01533
    4 Stretch                  1     5                       1.30000   -0.18840
    5 Bend                     2     1     3               109.44003   -0.00773
    6 Bend                     2     1     4               109.44003   -0.00773
    7 Bend                     2     1     5                90.00000   -0.06119
    8 Bend                     3     1     4               141.11993    0.01546
    9 Bend                     3     1     5                90.00000   -0.06877
   10 Bend                     4     1     5                90.00000   -0.06877

 Restricting large step in mode    1 eval= 5.1D-02 step=-3.7D-01 new=-3.0D-01
 Restricting large step in mode    3 eval= 5.5D-02 step= 1.3D+00 new= 3.0D-01
 Restricting large step in mode    4 eval= 5.5D-02 step= 1.3D+00 new= 3.0D-01
 Restricting large step in mode    5 eval= 5.5D-02 step= 1.1D+00 new= 3.0D-01
 Restricting large step in mode    9 eval= 4.0D-01 step= 4.7D-01 new= 3.0D-01
 Restricting overall step due to large component. alpha=  1.00
  no constraints, skipping    0.0000000000000000     
  no constraints, skipping    0.0000000000000000     
  no constraints, skipping    0.0000000000000000     
  no constraints, skipping    0.0000000000000000     
  no constraints, skipping    0.0000000000000000     
  no constraints, skipping    0.0000000000000000     
  no constraints, skipping    0.0000000000000000     
  no constraints, skipping    0.0000000000000000     

                                 NWChem DFT Module
                                 -----------------


                                 CH3F gas opt+freq




 Summary of "ao basis" -> "ao basis" (cartesian)
 ------------------------------------------------------------------------------
       Tag                 Description            Shells   Functions and Types
 ---------------- ------------------------------  ------  ---------------------
 C                         def2-svpd                 8       22   4s2p2d
 H                         def2-svpd                 4        8   2s2p
 F                         def2-svpd                 9       25   4s3p2d


      Symmetry analysis of basis
      --------------------------

        a'         48
        a"         23

  Caching 1-el integrals 

            General Information
            -------------------
          SCF calculation type: DFT
          Wavefunction type:  closed shell.
          No. of atoms     :     5
          No. of electrons :    18
           Alpha electrons :     9
            Beta electrons :     9
          Charge           :     0
          Spin multiplicity:     1
          Use of symmetry is: on ; symmetry adaption is: on 
          Maximum number of iterations: 200
          AO basis - number of functions:    71
                     number of shells:    29
          Convergence on energy requested:  1.00D-06
          Convergence on density requested:  1.00D-05
          Convergence on gradient requested:  5.00D-04

[...]
           5     0.12325    -0.00029    -0.66617     0.51063     0.33799     0.00006
           6    -0.00000    -0.26305     0.00011    -0.00000     0.00013    -0.70857
           7    -0.00585    -0.05546     0.23103     0.10839     0.49042    -0.37740
           8     0.12391     0.57685     0.32571     0.50320    -0.17960    -0.27882
           9     0.01587    -0.13986     0.07119    -0.16546     0.36970    -0.06777
          10    -0.00585     0.05566     0.23098     0.10839     0.49028     0.37758
          11     0.12391    -0.57657     0.32620     0.50320    -0.17970     0.27875
          12    -0.01587    -0.13993    -0.07107     0.16546    -0.36968    -0.06791
          13    -0.00407     0.00002     0.04689    -0.00055    -0.00858    -0.00000
          14    -0.15101    -0.00000    -0.00128    -0.02043     0.00021     0.00000
          15    -0.00000    -0.04691     0.00002    -0.00000    -0.00000     0.00857

                   13          14          15
 
 Frequency       3034.33     3129.14     3129.52
 
           1    -0.00131    -0.09118    -0.00000
           2    -0.04044     0.00255     0.00000
           3    -0.00000     0.00000    -0.09122
           4     0.54856     0.73987     0.00000
           5     0.15952     0.21350     0.00000
           6    -0.00000     0.00000    -0.01739
           7    -0.26595     0.16817    -0.32029
           8     0.18059    -0.12187     0.21113
           9     0.46883    -0.32703     0.54705
          10    -0.26595     0.16817     0.32029
          11     0.18059    -0.12187    -0.21113
          12    -0.46883     0.32703     0.54705
          13    -0.00005     0.00050     0.00000
          14    -0.00208    -0.00001    -0.00000
          15     0.00000    -0.00000     0.00050



 ----------------------------------------------------------------------------
 Normal Eigenvalue ||         Derivative Dipole Moments (debye/angs)
  Mode   [cm**-1]  ||      [d/dqX]             [d/dqY]           [d/dqZ]
 ------ ---------- || ------------------ ------------------ -----------------
    1      -14.014 ||       0.000              -0.000            -0.045
    2       -2.150 ||      -0.000               0.000             0.426
    3       -0.536 ||       0.000              -0.000            -0.005
    4        0.100 ||       0.002              -0.000            -0.002
    5        0.140 ||      -0.001               0.000            -0.001
    6        3.043 ||       0.428              -0.012             0.000
    7     1052.725 ||       0.044               1.638             0.000
    8     1184.392 ||      -0.000               0.000             0.154
    9     1184.417 ||      -0.154               0.004            -0.000
   10     1448.291 ||      -0.004              -0.135            -0.000
   11     1461.458 ||       0.373              -0.010             0.000
   12     1461.532 ||       0.000              -0.000            -0.373
   13     3034.326 ||      -0.026              -0.887            -0.000
   14     3129.139 ||      -0.747               0.022             0.000
   15     3129.520 ||      -0.000               0.000            -0.747
 ----------------------------------------------------------------------------



  
  
 ----------------------------------------------------------------------------
 Normal Eigenvalue ||                 Infra Red Intensities
  Mode   [cm**-1]  || [atomic units] [(debye/angs)**2] [(KM/mol)] [arbitrary]
 ------ ---------- || -------------- ----------------- ---------- -----------
    1      -14.014 ||    0.000087           0.002         0.085       0.057
    2       -2.150 ||    0.007865           0.181         7.667       5.135
    3       -0.536 ||    0.000001           0.000         0.001       0.001
    4        0.100 ||    0.000000           0.000         0.000       0.000
    5        0.140 ||    0.000000           0.000         0.000       0.000
    6        3.043 ||    0.007953           0.183         7.753       5.192
    7     1052.725 ||    0.116424           2.686       113.496      76.008
    8     1184.392 ||    0.001025           0.024         0.999       0.669
    9     1184.417 ||    0.001023           0.024         0.997       0.668
   10     1448.291 ||    0.000787           0.018         0.767       0.514
   11     1461.458 ||    0.006033           0.139         5.882       3.939
   12     1461.532 ||    0.006033           0.139         5.881       3.939
   13     3034.326 ||    0.034154           0.788        33.295      22.298
   14     3129.139 ||    0.024195           0.558        23.587      15.796
   15     3129.520 ||    0.024178           0.558        23.570      15.785
 ----------------------------------------------------------------------------





        Vibrational analysis via the FX method 
  --- with translations and rotations projected out ---
  --- via the Eckart algorithm                      ---
 Projected Nuclear Hessian trans-rot subspace norm:3.0117D-33
                         (should be close to zero!) 

          --------------------------------------------------------
          MASS-WEIGHTED PROJECTED HESSIAN (Hartree/Bohr/Bohr/Kamu)
          --------------------------------------------------------


               1            2            3            4            5            6            7            8            9           10
   ----- ----- ----- ----- -----
    1    4.93279D+01
    2   -3.28953D-01  3.72394D+01
    3    2.34207D-08  1.45193D-07  4.93506D+01
    4   -8.72534D+01 -1.91562D+01  1.51294D-07  3.14492D+02
    5   -1.62941D+01 -1.70327D+01  1.39656D-07  7.59580D+01  8.05094D+01
    6   -9.12722D-08  5.46043D-07 -1.51933D+01  1.89003D-07  6.97121D-07  4.47108D+01
    7   -3.24225D+01  1.09011D+01  3.03441D+01 -1.07684D+01  8.17512D+00  2.46556D+01  1.08878D+02
    8    9.47057D+00 -1.85780D+01 -1.65566D+01 -2.47853D+00  5.03419D+00  6.60503D+00 -4.17330D+01  8.70027D+01
    9    3.02790D+01 -1.90341D+01 -6.85114D+01 -1.50447D+00  1.15536D+00  2.33061D+00 -1.13060D+02  7.42356D+01  2.43939D+02
   10   -3.24225D+01  1.09011D+01 -3.03441D+01 -1.07684D+01  8.17512D+00 -2.46556D+01  8.68641D+00 -4.93322D+00  1.28296D+01  1.08878D+02
   11    9.47057D+00 -1.85780D+01  1.65566D+01 -2.47852D+00  5.03419D+00 -6.60503D+00 -4.93323D+00  5.43946D+00 -6.49856D+00 -4.17330D+01
   12   -3.02790D+01  1.90341D+01 -6.85114D+01  1.50447D+00 -1.15536D+00  2.33061D+00 -1.28296D+01  6.49858D+00 -1.75235D+01  1.13060D+02
   13   -4.17200D+00 -3.47973D-01 -1.01767D-07  1.87103D+00 -8.31077D+00 -3.77783D-07  1.17058D+00  3.79233D+00 -6.32681D-01  1.17058D+00
   14   -3.48238D-01 -1.71153D+01  1.28771D-07 -1.12855D+00 -7.32518D+00  4.53139D-07  2.01674D-01 -7.68597D+00 -7.39960D-01  2.01673D-01
   15    9.23196D-08  3.55655D-08 -4.16291D+00  3.80571D-07 -1.13410D-07  7.03511D-01 -7.99765D-01 -6.95771D+00  1.76449D+00  7.99764D-01


              11           12           13           14           15
   ----- ----- ----- ----- -----
   11    8.70027D+01
   12   -7.42356D+01  2.43939D+02
   13    3.79233D+00  6.32681D-01  2.34555D+00
   14   -7.68597D+00  7.39960D-01  4.43792D-01  1.88301D+01
   15    6.95771D+00  1.76449D+00 -5.98130D-09  1.34115D-08  2.33365D+00

 center of mass
 --------------
 x =   0.04854076 y =  -0.54147981 z =   0.00000000

 moments of inertia (a.u.)
 ------------------
          70.780740921738          -1.588863276923           0.000000000000
          -1.588863276923          11.766491375275           0.000000000000
           0.000000000000           0.000000000000          70.823253984782

 Rotational Constants
 --------------------
 A=   5.134893 cm-1  (  7.387801 K)
 B=   0.850006 cm-1  (  1.222941 K)
 C=   0.850003 cm-1  (  1.222937 K)


 Temperature                      =   298.15K
 frequency scaling parameter      =   1.0000

 Zero-Point correction to Energy  =   24.414 kcal/mol  (  0.038906 au)
 Thermal correction to Energy     =   26.243 kcal/mol  (  0.041821 au)
 Thermal correction to Enthalpy   =   26.835 kcal/mol  (  0.042764 au)

 Total Entropy                    =   55.400 cal/mol-K
   - Translational                =   36.488 cal/mol-K (mol. weight =  34.0219)
   - Rotational                   =   18.706 cal/mol-K (symmetry #  =        1)
   - Vibrational                  =    0.206 cal/mol-K

 Cv (constant volume heat capacity) =    6.973 cal/mol-K
   - Translational                  =    2.979 cal/mol-K
   - Rotational                     =    2.979 cal/mol-K
   - Vibrational                    =    1.014 cal/mol-K



          -------------------------------------------------
          NORMAL MODE EIGENVECTORS IN CARTESIAN COORDINATES
          -------------------------------------------------
             (Projected Frequencies expressed in cm-1)

                    1           2           3           4           5           6
 
 P.Frequency       -0.00       -0.00       -0.00        0.00        0.00        0.00
 
           1     0.00102     0.00176     0.01495     0.00010     0.00265     0.23897
           2    -0.17112     0.00794     0.00761    -0.00120    -0.00029    -0.00294
           3    -0.00697    -0.14738     0.00030    -0.02254     0.18730    -0.00097
           4    -0.00015     0.00213    -0.03376     0.00005     0.00325     0.29282
           5    -0.16732     0.00675     0.16593    -0.00104    -0.00224    -0.17796
           6     0.01098     0.26345    -0.00052     0.05043     0.59044    -0.00853
           7    -0.01762    -0.38445    -0.03937    -0.02247    -0.30906     0.30617
           8    -0.16677     0.11877    -0.06945    -0.13170    -0.10892     0.08262
           9    -0.01929    -0.41109     0.00074     0.01752     0.05468     0.00245
          10     0.01702     0.38880    -0.04081     0.02256     0.31571     0.29346
          11    -0.17917    -0.10174    -0.06934     0.12915     0.11023     0.08175
          12    -0.01929    -0.41109     0.00074     0.01752     0.05468     0.00245
          13     0.00605     0.00019     0.22417     0.00031     0.00009     0.00768
          14    -0.17125     0.00798     0.00199    -0.00120    -0.00022     0.00328
          15     0.00186     0.00633     0.00025    -0.22425     0.00570    -0.00004

                    7           8           9          10          11          12
 
 P.Frequency     1052.72     1184.45     1184.46     1448.29     1461.46     1461.54
 
           1     0.00560    -0.11983    -0.00001    -0.00252    -0.05728    -0.00001
           2     0.20792     0.00322     0.00000    -0.09506     0.00149     0.00000
           3     0.00000     0.00001    -0.11986     0.00000    -0.00001     0.05732
           4     0.02164     0.08095     0.00000    -0.17689    -0.13676    -0.00002
           5     0.12321    -0.66626    -0.00003     0.51065     0.33780     0.00005
           6     0.00000    -0.00001     0.26311    -0.00000     0.00011    -0.70848
           7    -0.00584     0.23100     0.05566     0.10863     0.49036    -0.37745
           8     0.12393     0.32589    -0.57667     0.50318    -0.17982    -0.27889
           9     0.01588     0.07116     0.13994    -0.16530     0.36977    -0.06779
          10    -0.00584     0.23101    -0.05563     0.10863     0.49025     0.37760
          11     0.12393     0.32583     0.57670     0.50318    -0.17990     0.27884
          12    -0.01588    -0.07117     0.13994     0.16530    -0.36975    -0.06790
          13    -0.00406     0.04688     0.00000    -0.00055    -0.00858    -0.00000
          14    -0.15101    -0.00127    -0.00000    -0.02043     0.00022     0.00000
          15    -0.00000    -0.00000     0.04690    -0.00000    -0.00000     0.00858

                   13          14          15
 
 P.Frequency     3034.33     3129.14     3129.52
 
           1    -0.00131    -0.09118     0.00000
           2    -0.04044     0.00255    -0.00000
           3    -0.00000     0.00000     0.09122
           4     0.54856     0.73987    -0.00000
           5     0.15952     0.21351    -0.00000
           6    -0.00000     0.00000     0.01740
           7    -0.26595     0.16817     0.32029
           8     0.18059    -0.12188    -0.21114
           9     0.46883    -0.32703    -0.54705
          10    -0.26595     0.16817    -0.32029
          11     0.18059    -0.12188     0.21114
          12    -0.46883     0.32703    -0.54705
          13    -0.00005     0.00050    -0.00000
          14    -0.00208    -0.00001     0.00000
          15     0.00000    -0.00000    -0.00050



 ----------------------------------------------------------------------------
 Normal Eigenvalue ||    Projected Derivative Dipole Moments (debye/angs)
  Mode   [cm**-1]  ||      [d/dqX]             [d/dqY]           [d/dqZ]
 ------ ---------- || ------------------ ------------------ -----------------
    1       -0.000 ||      -0.007               0.000            -0.012
    2       -0.000 ||       0.002              -0.000            -0.211
    3       -0.000 ||      -0.287               0.008             0.000
    4        0.000 ||       0.000              -0.000            -0.277
    5        0.000 ||       0.004              -0.000             0.249
    6        0.000 ||       0.318              -0.009            -0.001
    7     1052.725 ||       0.044               1.638             0.000
    8     1184.448 ||      -0.154               0.004             0.000
    9     1184.456 ||      -0.000               0.000            -0.154
   10     1448.291 ||      -0.004              -0.135             0.000
   11     1461.460 ||       0.373              -0.010             0.000
   12     1461.539 ||       0.000              -0.000            -0.373
   13     3034.326 ||      -0.026              -0.887            -0.000
   14     3129.138 ||      -0.747               0.022             0.000
   15     3129.520 ||      -0.000               0.000            -0.747
 ----------------------------------------------------------------------------



  
  
 ----------------------------------------------------------------------------
 Normal Eigenvalue ||           Projected Infra Red Intensities
  Mode   [cm**-1]  || [atomic units] [(debye/angs)**2] [(KM/mol)] [arbitrary]
 ------ ---------- || -------------- ----------------- ---------- -----------
    1       -0.000 ||    0.000008           0.000         0.008       0.006
    2       -0.000 ||    0.001930           0.045         1.882       1.260
    3       -0.000 ||    0.003578           0.083         3.488       2.336
    4        0.000 ||    0.003323           0.077         3.240       2.170
    5        0.000 ||    0.002695           0.062         2.627       1.759
    6        0.000 ||    0.004373           0.101         4.263       2.855
    7     1052.725 ||    0.116424           2.686       113.496      76.008
    8     1184.448 ||    0.001023           0.024         0.997       0.668
    9     1184.456 ||    0.001024           0.024         0.998       0.668
   10     1448.291 ||    0.000787           0.018         0.767       0.514
   11     1461.460 ||    0.006034           0.139         5.882       3.939
   12     1461.539 ||    0.006033           0.139         5.882       3.939
   13     3034.326 ||    0.034154           0.788        33.295      22.298
   14     3129.138 ||    0.024195           0.558        23.587      15.796
   15     3129.520 ||    0.024178           0.558        23.570      15.785
 ----------------------------------------------------------------------------



 vib:animation  F

 Task  times  cpu:     1970.7s     wall:      993.2s
 Summary of allocated global arrays
-----------------------------------
  No active global arrays


MA_summarize_allocated_blocks: starting scan ...
MA_summarize_allocated_blocks: scan completed: 0 heap blocks, 0 stack blocks
MA usage statistics:

	allocation statistics:
					      heap	     stack
					      ----	     -----
	current number of blocks	         0	         0
	maximum number of blocks	        26	        57
	current total bytes		         0	         0
	maximum total bytes		  80827768	  83344760
	maximum total K-bytes		     80828	     83345
	maximum total M-bytes		        81	        84


                                NWChem Input Module
                                -------------------




                                     CITATION
                                     --------
                Please cite the following reference when publishing
                           results obtained with NWChem:

          E. Apra, E. J. Bylaska, W. A. de Jong, N. Govind, K. Kowalski,
       T. P. Straatsma, M. Valiev, H. J. J. van Dam, Y. Alexeev, J. Anchell,
       V. Anisimov, F. W. Aquino, R. Atta-Fynn, J. Autschbach, N. P. Bauman,
     J. C. Becca, D. E. Bernholdt, K. Bhaskaran-Nair, S. Bogatko, P. Borowski,
         J. Boschen, J. Brabec, A. Bruner, E. Cauet, Y. Chen, G. N. Chuev,
      C. J. Cramer, J. Daily, M. J. O. Deegan, T. H. Dunning Jr., M. Dupuis,
   K. G. Dyall, G. I. Fann, S. A. Fischer, A. Fonari, H. Fruchtl, L. Gagliardi,
      J. Garza, N. Gawande, S. Ghosh, K. Glaesemann, A. W. Gotz, J. Hammond,
       V. Helms, E. D. Hermes, K. Hirao, S. Hirata, M. Jacquelin, L. Jensen,
   B. G. Johnson, H. Jonsson, R. A. Kendall, M. Klemm, R. Kobayashi, V. Konkov,
      S. Krishnamoorthy, M. Krishnan, Z. Lin, R. D. Lins, R. J. Littlefield,
      A. J. Logsdail, K. Lopata, W. Ma, A. V. Marenich, J. Martin del Campo,
   D. Mejia-Rodriguez, J. E. Moore, J. M. Mullin, T. Nakajima, D. R. Nascimento,
    J. A. Nichols, P. J. Nichols, J. Nieplocha, A. Otero-de-la-Roza, B. Palmer,
    A. Panyala, T. Pirojsirikul, B. Peng, R. Peverati, J. Pittner, L. Pollack,
   R. M. Richard, P. Sadayappan, G. C. Schatz, W. A. Shelton, D. W. Silverstein,
   D. M. A. Smith, T. A. Soares, D. Song, M. Swart, H. L. Taylor, G. S. Thomas,
            V. Tipparaju, D. G. Truhlar, K. Tsemekhman, T. Van Voorhis,
      A. Vazquez-Mayagoitia, P. Verma, O. Villa, A. Vishnu, K. D. Vogiatzis,
        D. Wang, J. H. Weare, M. J. Williamson, T. L. Windus, K. Wolinski,
        A. T. Wong, Q. Wu, C. Yang, Q. Yu, M. Zacharias, Z. Zhang, Y. Zhao,
                                and R. J. Harrison
                        "NWChem: Past, present, and future
                         J. Chem. Phys. 152, 184102 (2020)
                               doi:10.1063/5.0004997

                                      AUTHORS
                                      -------
  E. Apra, E. J. Bylaska, N. Govind, K. Kowalski, M. Valiev, D. Mejia-Rodriguez,
       A. Kunitsa, N. P. Bauman, A. Panyala, W. A. de Jong, T. P. Straatsma,
   H. J. J. van Dam, D. Wang, T. L. Windus, J. Hammond, J. Autschbach, A. Woods,
    K. Bhaskaran-Nair, J. Brabec, K. Lopata, S. A. Fischer, S. Krishnamoorthy,
     M. Jacquelin, W. Ma, M. Klemm, O. Villa, Y. Chen, V. Anisimov, F. Aquino,
     S. Hirata, M. T. Hackler, E. Hermes, L. Jensen, J. E. Moore, J. C. Becca,
      V. Konjkov, T. Risthaus, M. Malagoli, A. Marenich, A. Otero-de-la-Roza,
        J. Mullin, P. Nichols, R. Peverati, J. Pittner, Y. Zhao, P.-D. Fan,
        A. Fonari, M. J. Williamson, R. J. Harrison, J. R. Rehr, M. Dupuis,
     D. Silverstein, D. M. A. Smith, J. Nieplocha, V. Tipparaju, M. Krishnan,
     B. E. Van Kuiken, A. Vazquez-Mayagoitia, M. Swart, Q. Wu, T. Van Voorhis,
     A. A. Auer, M. Nooijen, L. D. Crosby, E. Brown, G. Cisneros, G. I. Fann,
   H. Fruchtl, J. Garza, K. Hirao, R. A. Kendall, J. A. Nichols, K. Tsemekhman,
    K. Wolinski, J. Anchell, D. E. Bernholdt, P. Borowski, T. Clark, D. Clerc,
   H. Dachsel, M. J. O. Deegan, K. Dyall, D. Elwood, E. Glendening, M. Gutowski,
   A. C. Hess, J. Jaffe, B. G. Johnson, J. Ju, R. Kobayashi, R. Kutteh, Z. Lin,
   R. Littlefield, X. Long, B. Meng, T. Nakajima, S. Niu, L. Pollack, M. Rosing,
   K. Glaesemann, G. Sandrone, M. Stave, H. Taylor, G. Thomas, J. H. van Lenthe,
                               A. T. Wong, Z. Zhang.

 Total times  cpu:     2550.5s     wall:     1305.1s
