 argument  1 = /mnt/c/Users/ddizy/Desktop/qcproject/reactions/sn2_methylchloride_f_attack/inputs_nwchem/gas_phase/cl_energy.nw



============================== echo of input deck ==============================
start cl_energy
title "Cl- gas opt+freq"
memory total 1000 mb
echo
scratch_dir /mnt/c/Users/ddizy/Desktop/qcproject/reactions/sn2_methylchloride_f_attack/runs_nwchem/gas_phase/scratch
permanent_dir /mnt/c/Users/ddizy/Desktop/qcproject/reactions/sn2_methylchloride_f_attack/runs_nwchem/gas_phase/perm

charge -1
geometry units angstrom
 Cl 0 0 0
end

basis
    * library def2-svpd
end

dft
  xc b3lyp
  mult 1
  grid xfine
  iterations 200
end
task dft energy


#nwchem ~/СH3Cl+F=CH3F+Cl/inputs/gas_env/Cl_opt_freq.nw > ~/СH3Cl+F=CH3F+Cl/outputs/gas_env/Cl_opt_freq.out
#grep -i "Total DFT energy" "$HOME/СH3Cl+F=CH3F+Cl/outputs/gas_env/Cl_opt_freq.out"
================================================================================


                                         
                                         


             Northwest Computational Chemistry Package (NWChem) 7.2.2
             --------------------------------------------------------


                    Environmental Molecular Sciences Laboratory
                       Pacific Northwest National Laboratory
                                Richland, WA 99352

                              Copyright (c) 1994-2022
                       Pacific Northwest National Laboratory
                            Battelle Memorial Institute

             NWChem is an open-source computational chemistry package
                        distributed under the terms of the
                      Educational Community License (ECL) 2.0
             A copy of the license is included with this distribution
                              in the LICENSE.TXT file

                                  ACKNOWLEDGMENT
                                  --------------

            This software and its documentation were developed at the
            EMSL at Pacific Northwest National Laboratory, a multiprogram
            national laboratory, operated for the U.S. Department of Energy
            by Battelle under Contract Number DE-AC05-76RL01830. Support
            for this work was provided by the Department of Energy Office
            of Biological and Environmental Research, Office of Basic
            Energy Sciences, and the Office of Advanced Scientific Computing.


           Job information
           ---------------

    hostname        = DESKTOP-B8GSJV0
    program         = nwchem
    date            = Sat Sep 20 20:45:51 2025

    compiled        = Mon_Apr_01_11:12:32_2024
    source          = /build/nwchem-qbYJLs/nwchem-7.2.2/build-openmpi
    nwchem branch   = 7.2.2
    nwchem revision = N/A
    ga revision     = N/A
    use scalapack   = T
    input           = /mnt/c/Users/ddizy/Desktop/qcproject/reactions/sn2_methylchloride_f_attack/inputs_nwchem/gas_phase/cl_energy.nw
    prefix          = cl_energy.
    data base       = /mnt/c/Users/ddizy/Desktop/qcproject/reactions/sn2_methylchloride_f_attack/runs_nwchem/gas_phase/perm/cl_energy.db
    status          = startup
    nproc           =        1
    time left       =     -1s



           Memory information
           ------------------

    heap     =   32767996 doubles =    250.0 Mbytes
    stack    =   32768001 doubles =    250.0 Mbytes
    global   =   65536000 doubles =    500.0 Mbytes (distinct from heap & stack)
    total    =  131071997 doubles =   1000.0 Mbytes
    verify   = yes
    hardfail = no 


           Directory information
           ---------------------

  0 permanent = /mnt/c/Users/ddizy/Desktop/qcproject/reactions/sn2_methylchloride_f_attack/runs_nwchem/gas_phase/perm
  0 scratch   = /mnt/c/Users/ddizy/Desktop/qcproject/reactions/sn2_methylchloride_f_attack/runs_nwchem/gas_phase/scratch




                                NWChem Input Module
                                -------------------


                                 Cl- gas opt+freq
                                 ----------------

 Scaling coordinates for geometry "geometry" by  1.889725989
 (inverse scale =  0.529177249)



                             Geometry "geometry" -> ""
                             -------------------------

 Output coordinates in angstroms (scale by  1.889725989 to convert to a.u.)

  No.       Tag          Charge          X              Y              Z
 ---- ---------------- ---------- -------------- -------------- --------------
    1 Cl                  17.0000     0.00000000     0.00000000     0.00000000

      Atomic Mass 
      ----------- 

      Cl                34.968850


 Effective nuclear repulsion energy (a.u.)       0.0000000000

            Nuclear Dipole moment (a.u.) 
            ----------------------------
        X                 Y               Z
 ---------------- ---------------- ----------------
     0.0000000000     0.0000000000     0.0000000000


            XYZ format geometry
            -------------------
     1
 geometry
 Cl                    0.00000000     0.00000000     0.00000000



 Summary of "ao basis" -> "" (cartesian)
 ------------------------------------------------------------------------------
       Tag                 Description            Shells   Functions and Types
 ---------------- ------------------------------  ------  ---------------------
 *                         def2-svpd                  on all atoms 



                                 NWChem DFT Module
                                 -----------------


                                 Cl- gas opt+freq


                      Basis "ao basis" -> "ao basis" (cartesian)
                      -----
  Cl (Chlorine)
  -------------
            Exponent  Coefficients 
       -------------- ---------------------------------------------------------
  1 S  1.04498276E+04  0.001971
  1 S  1.57173652E+03  0.014755
  1 S  3.57120655E+02  0.066679
  1 S  1.00251859E+02  0.172289
  1 S  3.08127276E+01  0.158838

  2 S  5.19237894E+01 -0.100093
  2 S  5.70457610E+00  0.608418
  2 S  2.35083768E+00  0.543522

  3 S  4.46051247E-01  1.000000

  4 S  1.68488562E-01  1.000000

  5 S  5.53442294E-02  1.000000

  6 P  3.07667906E+02 -0.008780
  6 P  7.21020155E+01 -0.063563
  6 P  2.25326803E+01 -0.240164
  6 P  7.89917654E+00 -0.477989
  6 P  2.87672683E+00 -0.385159

  7 P  7.74593640E-01  1.000000

  8 P  2.10376997E-01  1.000000

  9 P  5.00462711E-02  1.000000

 10 D  6.50000000E-01  1.000000

 11 D  1.22848034E-01  1.000000



 Summary of "ao basis" -> "ao basis" (cartesian)
 ------------------------------------------------------------------------------
       Tag                 Description            Shells   Functions and Types
 ---------------- ------------------------------  ------  ---------------------
 Cl                        def2-svpd                11       29   5s4p2d




 Summary of "ao basis" -> "ao basis" (cartesian)
 ------------------------------------------------------------------------------
       Tag                 Description            Shells   Functions and Types
 ---------------- ------------------------------  ------  ---------------------
 Cl                        def2-svpd                11       29   5s4p2d


  Caching 1-el integrals 

            General Information
            -------------------
          SCF calculation type: DFT
          Wavefunction type:  closed shell.
          No. of atoms     :     1
          No. of electrons :    18
           Alpha electrons :     9
            Beta electrons :     9
          Charge           :    -1
          Spin multiplicity:     1
          Use of symmetry is: off; symmetry adaption is: off
          Maximum number of iterations: 200
          AO basis - number of functions:    29
                     number of shells:    11
          Convergence on energy requested:  1.00D-06
          Convergence on density requested:  1.00D-05
          Convergence on gradient requested:  5.00D-04

              XC Information
              --------------
                         B3LYP Method XC Potential
                     Hartree-Fock (Exact) Exchange  0.200          
                        Slater Exchange Functional  0.800 local    
                    Becke 1988 Exchange Functional  0.720 non-local
              Lee-Yang-Parr Correlation Functional  0.810          
                  VWN I RPA Correlation Functional  0.190 local    

             Grid Information
             ----------------
          Grid used for XC integration:  xfine     
          Radial quadrature: Mura-Knowles        
          Angular quadrature: Lebedev. 
          Tag              B.-S. Rad. Rad. Pts. Rad. Cut. Ang. Pts.
          ---              ---------- --------- --------- ---------
          Cl                  1.00      125           8.0      1454
          Grid pruning is: on 
          Number of quadrature shells:   125
          Spatial weights used:  Erf1

          Convergence Information
          -----------------------
          Convergence aids based upon iterative change in 
          total energy or number of iterations. 
          Levelshifting, if invoked, occurs when the 
          HOMO/LUMO gap drops below (HL_TOL):  1.00D-02
          DIIS, if invoked, will attempt to extrapolate 
          using up to (NFOCK): 10 stored Fock matrices.

                    Damping( 0%)  Levelshifting(0.5)       DIIS
                  --------------- ------------------- ---------------
          dE  on:    start            ASAP                start   
          dE off:    2 iters        200 iters           200 iters 


      Screening Tolerance Information
      -------------------------------
          Density screening/tol_rho:  1.00D-10
          AO Gaussian exp screening on grid/accAOfunc:  14
          CD Gaussian exp screening on grid/accCDfunc:  20
          XC Gaussian exp screening on grid/accXCfunc:  20
          Schwarz screening/accCoul:  1.00D-08


      Superposition of Atomic Density Guess
      -------------------------------------

 Sum of atomic energies:        -459.32959417

 Renormalizing density from      17.00 to     18

      Non-variational initial energy
      ------------------------------

 Total energy =    -475.207943
 1-e energy   =    -671.847667
 2-e energy   =     196.639724
 HOMO         =       0.089820
 LUMO         =       0.274134

  WARNING: movecs_in_org=atomic not equal to movecs_in=/mnt/c/Users/ddizy/Desktop/qcproject/reactions/sn2_methylchloride_f_attack/runs_nwchem/gas_phase/perm/cl_energy.movecs
   Time after variat. SCF:      0.6
   Time prior to 1st pass:      0.6

 #quartets = 2.211D+03 #integrals = 1.726D+04 #direct =  0.0% #cached =100.0%


 Integral file          = /mnt/c/Users/ddizy/Desktop/qcproject/reactions/sn2_methylchloride_f_attack/runs_nwchem/gas_phase/scratch/cl_energy.aoints.0
 Record size in doubles =  65536        No. of integs per rec  =  43688
 Max. records in memory =      6        Max. records in file   = 217986
 No. of bits per label  =      8        No. of bits per value  =     64


 Grid_pts file          = /mnt/c/Users/ddizy/Desktop/qcproject/reactions/sn2_methylchloride_f_attack/runs_nwchem/gas_phase/scratch/cl_energy.gridpts.0
 Record size in doubles =  12289        No. of grid_pts per rec  =   3070
 Max. records in memory =     67        Max. recs in file   =   1162341


           Memory utilization after 1st SCF pass: 
           Heap Space remaining (MW):       31.55            31549788
          Stack Space remaining (MW):       32.77            32767716

   convergence    iter        energy       DeltaE   RMS-Dens  Diis-err    time
 ---------------- ----- ----------------- --------- --------- ---------  ------
 d= 0,ls=0.0,diis     1   -459.8326333260 -4.60D+02  9.11D-02  3.61D+00     3.5
 d= 0,ls=0.0,diis     2   -459.8541439055 -2.15D-02  5.06D-02  2.52D+00     5.1
 d= 0,ls=0.0,diis     3   -460.1595658908 -3.05D-01  3.22D-03  1.14D-02     6.8
 d= 0,ls=0.0,diis     4   -460.1609616022 -1.40D-03  3.19D-04  5.24D-05     8.3
 d= 0,ls=0.0,diis     5   -460.1609716221 -1.00D-05  6.09D-05  4.58D-06    10.0
 d= 0,ls=0.0,diis     6   -460.1609722942 -6.72D-07  1.37D-06  2.14D-09    11.5


         Total DFT energy =     -460.160972294191
      One electron energy =     -640.667389921210
           Coulomb energy =      208.930107843822
    Exchange-Corr. energy =      -28.423690216804
 Nuclear repulsion energy =        0.000000000000

 Numeric. integr. density =       17.999999999060

     Total iterative time =     10.9s



                       DFT Final Molecular Orbital Analysis
                       ------------------------------------

 Vector    1  Occ=2.000000D+00  E=-1.012216D+02
              MO Center=  4.3D-19, -5.8D-21, -9.0D-20, r^2= 3.2D-03
   Bfn.  Coefficient  Atom+Function         Bfn.  Coefficient  Atom+Function  
  ----- ------------  ---------------      ----- ------------  ---------------
     1      0.993390  1 Cl s                  2      0.030436  1 Cl s          
     3     -0.025647  1 Cl s          

 Vector    2  Occ=2.000000D+00  E=-9.152148D+00
              MO Center= -9.1D-17,  1.9D-16,  1.8D-16, r^2= 6.6D-02
   Bfn.  Coefficient  Atom+Function         Bfn.  Coefficient  Atom+Function  
  ----- ------------  ---------------      ----- ------------  ---------------
     2      1.013606  1 Cl s                  1     -0.311087  1 Cl s          
     3      0.070806  1 Cl s          

 Vector    3  Occ=2.000000D+00  E=-6.915910D+00
              MO Center= -1.1D-16, -3.9D-17,  7.4D-17, r^2= 5.8D-02
   Bfn.  Coefficient  Atom+Function         Bfn.  Coefficient  Atom+Function  
  ----- ------------  ---------------      ----- ------------  ---------------
     7      0.657609  1 Cl py                 8     -0.600190  1 Cl pz         
     6     -0.412151  1 Cl px                10     -0.033774  1 Cl py         
    11      0.030825  1 Cl pz         

 Vector    4  Occ=2.000000D+00  E=-6.915910D+00
              MO Center=  2.2D-17,  3.6D-17, -3.0D-18, r^2= 5.8D-02
   Bfn.  Coefficient  Atom+Function         Bfn.  Coefficient  Atom+Function  
  ----- ------------  ---------------      ----- ------------  ---------------
     6      0.888308  1 Cl px                 8     -0.325959  1 Cl pz         
     7      0.259242  1 Cl py                 9     -0.045622  1 Cl px         

 Vector    5  Occ=2.000000D+00  E=-6.915910D+00
              MO Center=  1.8D-17, -1.8D-16, -2.3D-16, r^2= 5.8D-02
   Bfn.  Coefficient  Atom+Function         Bfn.  Coefficient  Atom+Function  
  ----- ------------  ---------------      ----- ------------  ---------------
     8      0.704322  1 Cl pz                 7      0.680361  1 Cl py         
     6      0.059891  1 Cl px                11     -0.036173  1 Cl pz         
    10     -0.034942  1 Cl py         

 Vector    6  Occ=2.000000D+00  E=-4.817770D-01
              MO Center=  2.4D-15,  1.1D-14,  3.5D-15, r^2= 8.3D-01
   Bfn.  Coefficient  Atom+Function         Bfn.  Coefficient  Atom+Function  
  ----- ------------  ---------------      ----- ------------  ---------------
     3      0.741319  1 Cl s                  2     -0.541570  1 Cl s          
     4      0.367886  1 Cl s                  1      0.087100  1 Cl s          
    24      0.026070  1 Cl dxx               27      0.026070  1 Cl dyy        
    29      0.026070  1 Cl dzz        

 Vector    7  Occ=2.000000D+00  E=-3.021739D-02
              MO Center= -1.0D-15,  4.7D-15, -1.9D-16, r^2= 1.5D+00
   Bfn.  Coefficient  Atom+Function         Bfn.  Coefficient  Atom+Function  
  ----- ------------  ---------------      ----- ------------  ---------------
    12      0.564624  1 Cl px                 9      0.445051  1 Cl px         
     6      0.258210  1 Cl px                15      0.196500  1 Cl px         
    13     -0.083186  1 Cl py                14      0.079544  1 Cl pz         
    10     -0.065569  1 Cl py                11      0.062699  1 Cl pz         
     7     -0.038042  1 Cl py                 8      0.036377  1 Cl pz         

 Vector    8  Occ=2.000000D+00  E=-3.021739D-02
              MO Center=  5.8D-17, -3.0D-16,  5.5D-15, r^2= 1.5D+00
   Bfn.  Coefficient  Atom+Function         Bfn.  Coefficient  Atom+Function  
  ----- ------------  ---------------      ----- ------------  ---------------
    13      0.415891  1 Cl py                14     -0.381891  1 Cl pz         
    10      0.327816  1 Cl py                11     -0.301016  1 Cl pz         
     7      0.190192  1 Cl py                 8     -0.174644  1 Cl pz         
    16      0.144738  1 Cl py                17     -0.132905  1 Cl pz         
    12      0.115074  1 Cl px                 9      0.090704  1 Cl px         

 Vector    9  Occ=2.000000D+00  E=-3.021739D-02
              MO Center=  1.7D-15,  9.5D-16, -5.0D-15, r^2= 1.5D+00
   Bfn.  Coefficient  Atom+Function         Bfn.  Coefficient  Atom+Function  
  ----- ------------  ---------------      ----- ------------  ---------------
    14      0.424123  1 Cl pz                13      0.390080  1 Cl py         
    11      0.334304  1 Cl pz                10      0.307471  1 Cl py         
     8      0.193957  1 Cl pz                 7      0.178389  1 Cl py         
    17      0.147603  1 Cl pz                16      0.135755  1 Cl py         

 Vector   10  Occ=0.000000D+00  E= 1.933520D-01
              MO Center=  6.6D-16,  5.1D-14, -4.1D-15, r^2= 9.0D+00
   Bfn.  Coefficient  Atom+Function         Bfn.  Coefficient  Atom+Function  
  ----- ------------  ---------------      ----- ------------  ---------------
     5      3.750024  1 Cl s                  4     -1.282831  1 Cl s          
    24     -0.878031  1 Cl dxx               27     -0.878031  1 Cl dyy        
    29     -0.878031  1 Cl dzz                3     -0.350931  1 Cl s          
     2      0.111682  1 Cl s                 18     -0.043584  1 Cl dxx        
    21     -0.043584  1 Cl dyy               23     -0.043584  1 Cl dzz        

 Vector   11  Occ=0.000000D+00  E= 2.724389D-01
              MO Center=  1.8D-14, -5.0D-15,  3.5D-15, r^2= 7.8D+00
   Bfn.  Coefficient  Atom+Function         Bfn.  Coefficient  Atom+Function  
  ----- ------------  ---------------      ----- ------------  ---------------
    15      1.025402  1 Cl px                12     -0.507080  1 Cl px         
    16     -0.445723  1 Cl py                17      0.246018  1 Cl pz         
    13      0.220418  1 Cl py                 9     -0.164860  1 Cl px         
    14     -0.121660  1 Cl pz                 6     -0.105984  1 Cl px         
    10      0.071662  1 Cl py                 7      0.046069  1 Cl py         

 Vector   12  Occ=0.000000D+00  E= 2.724389D-01
              MO Center= -1.7D-14, -2.7D-14,  2.0D-14, r^2= 7.8D+00
   Bfn.  Coefficient  Atom+Function         Bfn.  Coefficient  Atom+Function  
  ----- ------------  ---------------      ----- ------------  ---------------
    16      0.839888  1 Cl py                17     -0.590315  1 Cl pz         
    15      0.506714  1 Cl px                13     -0.415340  1 Cl py         
    14      0.291922  1 Cl pz                12     -0.250579  1 Cl px         
    10     -0.135034  1 Cl py                11      0.094909  1 Cl pz         
     7     -0.086810  1 Cl py                 9     -0.081467  1 Cl px         

 Vector   13  Occ=0.000000D+00  E= 2.724389D-01
              MO Center= -3.2D-15, -1.1D-14, -2.3D-14, r^2= 7.8D+00
   Bfn.  Coefficient  Atom+Function         Bfn.  Coefficient  Atom+Function  
  ----- ------------  ---------------      ----- ------------  ---------------
    17      0.949550  1 Cl pz                16      0.637622  1 Cl py         
    14     -0.469570  1 Cl pz                13     -0.315316  1 Cl py         
    11     -0.152665  1 Cl pz                10     -0.102514  1 Cl py         
     8     -0.098144  1 Cl pz                 7     -0.065904  1 Cl py         
    15      0.049343  1 Cl px         

 Vector   14  Occ=0.000000D+00  E= 4.501800D-01
              MO Center= -1.8D-16, -6.5D-15,  5.8D-16, r^2= 3.7D+00
   Bfn.  Coefficient  Atom+Function         Bfn.  Coefficient  Atom+Function  
  ----- ------------  ---------------      ----- ------------  ---------------
    24      0.917773  1 Cl dxx               27     -0.663772  1 Cl dyy        
    29     -0.254001  1 Cl dzz               18      0.128496  1 Cl dxx        
    21     -0.092934  1 Cl dyy               23     -0.035562  1 Cl dzz        

 Vector   15  Occ=0.000000D+00  E= 4.501800D-01
              MO Center= -3.5D-16, -2.6D-15,  4.2D-15, r^2= 3.7D+00
   Bfn.  Coefficient  Atom+Function         Bfn.  Coefficient  Atom+Function  
  ----- ------------  ---------------      ----- ------------  ---------------
    29      0.913105  1 Cl dzz               27     -0.676524  1 Cl dyy        
    24     -0.236581  1 Cl dxx               23      0.127843  1 Cl dzz        
    21     -0.094719  1 Cl dyy               18     -0.033123  1 Cl dxx        

 Vector   16  Occ=0.000000D+00  E= 4.501800D-01
              MO Center=  8.5D-16, -9.2D-15,  1.6D-15, r^2= 3.7D+00
   Bfn.  Coefficient  Atom+Function         Bfn.  Coefficient  Atom+Function  
  ----- ------------  ---------------      ----- ------------  ---------------
    25      1.470488  1 Cl dxy               28     -0.619503  1 Cl dyz        
    26     -0.385637  1 Cl dxz               19      0.205881  1 Cl dxy        
    22     -0.086736  1 Cl dyz               20     -0.053993  1 Cl dxz        

 Vector   17  Occ=0.000000D+00  E= 4.501800D-01
              MO Center= -3.4D-15, -9.8D-16, -7.1D-15, r^2= 3.7D+00
   Bfn.  Coefficient  Atom+Function         Bfn.  Coefficient  Atom+Function  
  ----- ------------  ---------------      ----- ------------  ---------------
    28      1.483480  1 Cl dyz               25      0.675750  1 Cl dxy        
    22      0.207700  1 Cl dyz               26      0.193606  1 Cl dxz        
    19      0.094611  1 Cl dxy               20      0.027107  1 Cl dxz        

 Vector   18  Occ=0.000000D+00  E= 4.501800D-01
              MO Center=  1.4D-15,  3.5D-16,  2.1D-15, r^2= 3.7D+00
   Bfn.  Coefficient  Atom+Function         Bfn.  Coefficient  Atom+Function  
  ----- ------------  ---------------      ----- ------------  ---------------
    26      1.583867  1 Cl dxz               28     -0.332171  1 Cl dyz        
    25      0.275431  1 Cl dxy               20      0.221755  1 Cl dxz        
    22     -0.046507  1 Cl dyz               19      0.038563  1 Cl dxy        

 Vector   19  Occ=0.000000D+00  E= 5.000723D-01
              MO Center=  2.8D-15,  6.8D-15,  1.7D-15, r^2= 6.6D+00
   Bfn.  Coefficient  Atom+Function         Bfn.  Coefficient  Atom+Function  
  ----- ------------  ---------------      ----- ------------  ---------------
     5      4.547310  1 Cl s                 24     -1.917282  1 Cl dxx        
    27     -1.917282  1 Cl dyy               29     -1.917282  1 Cl dzz        
     4     -0.839084  1 Cl s                  2     -0.274686  1 Cl s          
    18     -0.101903  1 Cl dxx               21     -0.101903  1 Cl dyy        
    23     -0.101903  1 Cl dzz                1      0.037721  1 Cl s          

 Vector   20  Occ=0.000000D+00  E= 1.239042D+00
              MO Center= -5.1D-18,  6.5D-15,  4.2D-15, r^2= 1.3D+00
   Bfn.  Coefficient  Atom+Function         Bfn.  Coefficient  Atom+Function  
  ----- ------------  ---------------      ----- ------------  ---------------
    21      1.025339  1 Cl dyy               23     -0.719386  1 Cl dzz        
    27     -0.464676  1 Cl dyy               29      0.326020  1 Cl dzz        
    18     -0.305952  1 Cl dxx               24      0.138655  1 Cl dxx        

 Vector   21  Occ=0.000000D+00  E= 1.239042D+00
              MO Center=  6.1D-15,  1.4D-16,  2.9D-15, r^2= 1.3D+00
   Bfn.  Coefficient  Atom+Function         Bfn.  Coefficient  Atom+Function  
  ----- ------------  ---------------      ----- ------------  ---------------
    18      1.007317  1 Cl dxx               23     -0.768621  1 Cl dzz        
    24     -0.456509  1 Cl dxx               29      0.348333  1 Cl dzz        
    21     -0.238696  1 Cl dyy               27      0.108175  1 Cl dyy        

 Vector   22  Occ=0.000000D+00  E= 1.239042D+00
              MO Center=  1.4D-15,  1.3D-15,  3.9D-15, r^2= 1.3D+00
   Bfn.  Coefficient  Atom+Function         Bfn.  Coefficient  Atom+Function  
  ----- ------------  ---------------      ----- ------------  ---------------
    20      1.726606  1 Cl dxz               26     -0.782485  1 Cl dxz        
    19      0.523048  1 Cl dxy               22      0.264834  1 Cl dyz        
    25     -0.237041  1 Cl dxy               28     -0.120021  1 Cl dyz        

 Vector   23  Occ=0.000000D+00  E= 1.239042D+00
              MO Center= -1.1D-15,  2.6D-15,  3.5D-16, r^2= 1.3D+00
   Bfn.  Coefficient  Atom+Function         Bfn.  Coefficient  Atom+Function  
  ----- ------------  ---------------      ----- ------------  ---------------
    19      1.549778  1 Cl dxy               22     -0.901896  1 Cl dyz        
    25     -0.702348  1 Cl dxy               28      0.408732  1 Cl dyz        
    20     -0.331144  1 Cl dxz               26      0.150072  1 Cl dxz        

 Vector   24  Occ=0.000000D+00  E= 1.239042D+00
              MO Center= -1.5D-15,  5.7D-15, -1.4D-15, r^2= 1.3D+00
   Bfn.  Coefficient  Atom+Function         Bfn.  Coefficient  Atom+Function  
  ----- ------------  ---------------      ----- ------------  ---------------
    22      1.562476  1 Cl dyz               19      0.805912  1 Cl dxy        
    28     -0.708102  1 Cl dyz               20     -0.483797  1 Cl dxz        
    25     -0.365233  1 Cl dxy               26      0.219253  1 Cl dxz        

 Vector   25  Occ=0.000000D+00  E= 1.283065D+00
              MO Center= -1.0D-14,  1.3D-13,  1.6D-13, r^2= 2.0D+00
   Bfn.  Coefficient  Atom+Function         Bfn.  Coefficient  Atom+Function  
  ----- ------------  ---------------      ----- ------------  ---------------
    14     -1.018362  1 Cl pz                11      1.009321  1 Cl pz         
    13     -0.884738  1 Cl py                10      0.876883  1 Cl py         
    17      0.341172  1 Cl pz                 8      0.299343  1 Cl pz         
    16      0.296405  1 Cl py                 7      0.260065  1 Cl py         
    12      0.052429  1 Cl px                 9     -0.051964  1 Cl px         

 Vector   26  Occ=0.000000D+00  E= 1.283065D+00
              MO Center=  3.3D-14,  2.9D-14, -3.6D-14, r^2= 2.0D+00
   Bfn.  Coefficient  Atom+Function         Bfn.  Coefficient  Atom+Function  
  ----- ------------  ---------------      ----- ------------  ---------------
    13     -0.836934  1 Cl py                10      0.829504  1 Cl py         
    12     -0.807556  1 Cl px                 9      0.800387  1 Cl px         
    14      0.685540  1 Cl pz                11     -0.679454  1 Cl pz         
    16      0.280390  1 Cl py                15      0.270548  1 Cl px         
     7      0.246013  1 Cl py                 6      0.237378  1 Cl px         

 Vector   27  Occ=0.000000D+00  E= 1.283065D+00
              MO Center= -5.5D-14,  1.9D-14, -2.8D-14, r^2= 2.0D+00
   Bfn.  Coefficient  Atom+Function         Bfn.  Coefficient  Atom+Function  
  ----- ------------  ---------------      ----- ------------  ---------------
    12     -1.080590  1 Cl px                 9      1.070997  1 Cl px         
    13      0.582538  1 Cl py                10     -0.577367  1 Cl py         
    14     -0.561734  1 Cl pz                11      0.556747  1 Cl pz         
    15      0.362020  1 Cl px                 6      0.317635  1 Cl px         
    16     -0.195162  1 Cl py                17      0.188192  1 Cl pz         

 Vector   28  Occ=0.000000D+00  E= 1.293572D+00
              MO Center=  2.2D-14, -2.1D-13, -1.0D-13, r^2= 3.6D+00
   Bfn.  Coefficient  Atom+Function         Bfn.  Coefficient  Atom+Function  
  ----- ------------  ---------------      ----- ------------  ---------------
     4      3.713289  1 Cl s                  5      3.348088  1 Cl s          
     3     -3.139630  1 Cl s                 24     -1.981373  1 Cl dxx        
    27     -1.981373  1 Cl dyy               29     -1.981373  1 Cl dzz        
    18     -0.415578  1 Cl dxx               21     -0.415578  1 Cl dyy        
    23     -0.415578  1 Cl dzz                2      0.389238  1 Cl s          

 Vector   29  Occ=0.000000D+00  E= 4.191858D+00
              MO Center= -1.2D-17,  9.1D-17, -6.7D-18, r^2= 1.2D+00
   Bfn.  Coefficient  Atom+Function         Bfn.  Coefficient  Atom+Function  
  ----- ------------  ---------------      ----- ------------  ---------------
     3      2.849408  1 Cl s                  4      2.744623  1 Cl s          
    18     -2.273619  1 Cl dxx               21     -2.273619  1 Cl dyy        
    23     -2.273619  1 Cl dzz                2     -1.617577  1 Cl s          
     5      1.609600  1 Cl s                 24     -1.015769  1 Cl dxx        
    27     -1.015769  1 Cl dyy               29     -1.015769  1 Cl dzz        


 Parallel integral file used       1 records with       0 large values


 Task  times  cpu:       15.6s     wall:       11.4s
 Summary of allocated global arrays
-----------------------------------
  No active global arrays


MA_summarize_allocated_blocks: starting scan ...
MA_summarize_allocated_blocks: scan completed: 0 heap blocks, 0 stack blocks
MA usage statistics:

	allocation statistics:
					      heap	     stack
					      ----	     -----
	current number of blocks	         0	         0
	maximum number of blocks	        21	        53
	current total bytes		         0	         0
	maximum total bytes		   9745168	  22511016
	maximum total K-bytes		      9746	     22512
	maximum total M-bytes		        10	        23


                                NWChem Input Module
                                -------------------




                                     CITATION
                                     --------
                Please cite the following reference when publishing
                           results obtained with NWChem:

          E. Apra, E. J. Bylaska, W. A. de Jong, N. Govind, K. Kowalski,
       T. P. Straatsma, M. Valiev, H. J. J. van Dam, Y. Alexeev, J. Anchell,
       V. Anisimov, F. W. Aquino, R. Atta-Fynn, J. Autschbach, N. P. Bauman,
     J. C. Becca, D. E. Bernholdt, K. Bhaskaran-Nair, S. Bogatko, P. Borowski,
         J. Boschen, J. Brabec, A. Bruner, E. Cauet, Y. Chen, G. N. Chuev,
      C. J. Cramer, J. Daily, M. J. O. Deegan, T. H. Dunning Jr., M. Dupuis,
   K. G. Dyall, G. I. Fann, S. A. Fischer, A. Fonari, H. Fruchtl, L. Gagliardi,
      J. Garza, N. Gawande, S. Ghosh, K. Glaesemann, A. W. Gotz, J. Hammond,
       V. Helms, E. D. Hermes, K. Hirao, S. Hirata, M. Jacquelin, L. Jensen,
   B. G. Johnson, H. Jonsson, R. A. Kendall, M. Klemm, R. Kobayashi, V. Konkov,
      S. Krishnamoorthy, M. Krishnan, Z. Lin, R. D. Lins, R. J. Littlefield,
      A. J. Logsdail, K. Lopata, W. Ma, A. V. Marenich, J. Martin del Campo,
   D. Mejia-Rodriguez, J. E. Moore, J. M. Mullin, T. Nakajima, D. R. Nascimento,
    J. A. Nichols, P. J. Nichols, J. Nieplocha, A. Otero-de-la-Roza, B. Palmer,
    A. Panyala, T. Pirojsirikul, B. Peng, R. Peverati, J. Pittner, L. Pollack,
   R. M. Richard, P. Sadayappan, G. C. Schatz, W. A. Shelton, D. W. Silverstein,
   D. M. A. Smith, T. A. Soares, D. Song, M. Swart, H. L. Taylor, G. S. Thomas,
            V. Tipparaju, D. G. Truhlar, K. Tsemekhman, T. Van Voorhis,
      A. Vazquez-Mayagoitia, P. Verma, O. Villa, A. Vishnu, K. D. Vogiatzis,
        D. Wang, J. H. Weare, M. J. Williamson, T. L. Windus, K. Wolinski,
        A. T. Wong, Q. Wu, C. Yang, Q. Yu, M. Zacharias, Z. Zhang, Y. Zhao,
                                and R. J. Harrison
                        "NWChem: Past, present, and future
                         J. Chem. Phys. 152, 184102 (2020)
                               doi:10.1063/5.0004997

                                      AUTHORS
                                      -------
  E. Apra, E. J. Bylaska, N. Govind, K. Kowalski, M. Valiev, D. Mejia-Rodriguez,
       A. Kunitsa, N. P. Bauman, A. Panyala, W. A. de Jong, T. P. Straatsma,
   H. J. J. van Dam, D. Wang, T. L. Windus, J. Hammond, J. Autschbach, A. Woods,
    K. Bhaskaran-Nair, J. Brabec, K. Lopata, S. A. Fischer, S. Krishnamoorthy,
     M. Jacquelin, W. Ma, M. Klemm, O. Villa, Y. Chen, V. Anisimov, F. Aquino,
     S. Hirata, M. T. Hackler, E. Hermes, L. Jensen, J. E. Moore, J. C. Becca,
      V. Konjkov, T. Risthaus, M. Malagoli, A. Marenich, A. Otero-de-la-Roza,
        J. Mullin, P. Nichols, R. Peverati, J. Pittner, Y. Zhao, P.-D. Fan,
        A. Fonari, M. J. Williamson, R. J. Harrison, J. R. Rehr, M. Dupuis,
     D. Silverstein, D. M. A. Smith, J. Nieplocha, V. Tipparaju, M. Krishnan,
     B. E. Van Kuiken, A. Vazquez-Mayagoitia, M. Swart, Q. Wu, T. Van Voorhis,
     A. A. Auer, M. Nooijen, L. D. Crosby, E. Brown, G. Cisneros, G. I. Fann,
   H. Fruchtl, J. Garza, K. Hirao, R. A. Kendall, J. A. Nichols, K. Tsemekhman,
    K. Wolinski, J. Anchell, D. E. Bernholdt, P. Borowski, T. Clark, D. Clerc,
   H. Dachsel, M. J. O. Deegan, K. Dyall, D. Elwood, E. Glendening, M. Gutowski,
   A. C. Hess, J. Jaffe, B. G. Johnson, J. Ju, R. Kobayashi, R. Kutteh, Z. Lin,
   R. Littlefield, X. Long, B. Meng, T. Nakajima, S. Niu, L. Pollack, M. Rosing,
   K. Glaesemann, G. Sandrone, M. Stave, H. Taylor, G. Thomas, J. H. van Lenthe,
                               A. T. Wong, Z. Zhang.

 Total times  cpu:       15.6s     wall:       12.9s
