 argument  1 = /home/sebastian/СH3Cl+F=CH3F+Cl/inputs/gas_env/TS_via_saddle_freq.nw



============================== echo of input deck ==============================
start Sn2_saddle
title "СH3Cl+F=CH3F+Cl gas saddle+freq"
memory total 1500 mb
echo

charge -1
geometry units angstrom
  C   0.000   0.000   0.000
  H   0.000   1.080   0.000
  H   1.020  -0.360   0.000
  H  -1.020  -0.360   0.000
  F   0.000   0.000  -2.00
  Cl  0.000   0.000   2.20
end

basis
    * library def2-svpd
end

dft
  xc b3lyp
  mult 1
  grid xfine
  iterations 200
end

task dft saddle
task dft freq

#nwchem ~/СH3Cl+F=CH3F+Cl/inputs/gas_env/TS_via_saddle_freq.nw > ~/СH3Cl+F=CH3F+Cl/outputs/gas_env/TS_via_saddle_freq.out
#grep -i "Total DFT energy" "$HOME/СH3Cl+F=CH3F+Cl/outputs/gas_env/TS_via_saddle_freq.out"
================================================================================


                                         
                                         


             Northwest Computational Chemistry Package (NWChem) 7.2.2
             --------------------------------------------------------


                    Environmental Molecular Sciences Laboratory
                       Pacific Northwest National Laboratory
                                Richland, WA 99352

                              Copyright (c) 1994-2022
                       Pacific Northwest National Laboratory
                            Battelle Memorial Institute

             NWChem is an open-source computational chemistry package
                        distributed under the terms of the
                      Educational Community License (ECL) 2.0
             A copy of the license is included with this distribution
                              in the LICENSE.TXT file

                                  ACKNOWLEDGMENT
                                  --------------

            This software and its documentation were developed at the
            EMSL at Pacific Northwest National Laboratory, a multiprogram
            national laboratory, operated for the U.S. Department of Energy
            by Battelle under Contract Number DE-AC05-76RL01830. Support
            for this work was provided by the Department of Energy Office
            of Biological and Environmental Research, Office of Basic
            Energy Sciences, and the Office of Advanced Scientific Computing.


           Job information
           ---------------

    hostname        = DESKTOP-B8GSJV0
    program         = nwchem
    date            = Fri Sep 12 16:48:09 2025

    compiled        = Mon_Apr_01_11:12:32_2024
    source          = /build/nwchem-qbYJLs/nwchem-7.2.2/build-openmpi
    nwchem branch   = 7.2.2
    nwchem revision = N/A
    ga revision     = N/A
    use scalapack   = T
    input           = /home/sebastian/СH3Cl+F=CH3F+Cl/inputs/gas_env/TS_via_saddle_freq.nw
    prefix          = Sn2_saddle.
    data base       = ./Sn2_saddle.db
    status          = startup
    nproc           =        1
    time left       =     -1s



           Memory information
           ------------------

    heap     =   49152000 doubles =    375.0 Mbytes
    stack    =   49151997 doubles =    375.0 Mbytes
    global   =   98304000 doubles =    750.0 Mbytes (distinct from heap & stack)
    total    =  196607997 doubles =   1500.0 Mbytes
    verify   = yes
    hardfail = no 


           Directory information
           ---------------------

  0 permanent = .
  0 scratch   = .




                                NWChem Input Module
                                -------------------


                         СH3Cl+F=CH3F+Cl gas saddle+freq
                         --------------------------------

 Scaling coordinates for geometry "geometry" by  1.889725989
 (inverse scale =  0.529177249)

 CS  symmetry detected

          ------
          auto-z
          ------
  autoz: The atoms group into disjoint clusters
 cluster   1:    1    2    3    4
 cluster   2:    5
 cluster   3:    6
 Connecting clusters   1   2 via atoms    1    5 r = 2.00
 Connecting clusters   1   3 via atoms    1    6 r = 2.20
 Connecting clusters   2   3 via atoms    5    6 r = 4.20
  autoz: regenerating connections with new bonds
  Looking for out-of-plane bends
  no constraints, skipping    0.0000000000000000     
  no constraints, skipping    0.0000000000000000     


                             Geometry "geometry" -> ""
                             -------------------------

 Output coordinates in angstroms (scale by  1.889725989 to convert to a.u.)

  No.       Tag          Charge          X              Y              Z
 ---- ---------------- ---------- -------------- -------------- --------------
    1 C                    6.0000    -0.01079732     0.55427598     0.00000000
    2 H                    1.0000     1.06920222     0.55527283     0.00000000
    3 H                    1.0000    -0.37079716     0.55394370     1.02000000
    4 H                    1.0000    -0.37079716     0.55394370    -1.02000000
    5 F                    9.0000    -0.01264332     2.55427513     0.00000000
    6 Cl                  17.0000    -0.00876671    -1.64572308     0.00000000

      Atomic Mass 
      ----------- 

      C                 12.000000
      H                  1.007825
      F                 18.998400
      Cl                34.968850


 Effective nuclear repulsion energy (a.u.)      85.0635005391

            Nuclear Dipole moment (a.u.) 
            ----------------------------
        X                 Y               Z
 ---------------- ---------------- ----------------
     0.0000000000     0.0000000000     0.0000000000

      Symmetry information
      --------------------

 Group name             Cs        
 Group number              2
 Group order               2
 No. of unique centers     5

      Symmetry unique atoms

     1    2    3    5    6



                                Z-matrix (autoz)
                                -------- 

 Units are Angstrom for bonds and degrees for angles

      Type          Name      I     J     K     L     M      Value
      ----------- --------  ----- ----- ----- ----- ----- ----------
    1 Stretch                  1     5                       2.00000
    2 Stretch                  1     6                       2.20000
    3 Stretch                  1     2                       1.08000
    4 Stretch                  1     3                       1.08167
    5 Stretch                  1     4                       1.08167
    6 Stretch                  5     6                       4.20000
    7 Bend                     2     1     5                90.00000
    8 Bend                     2     1     6                90.00000
    9 Bend                     2     1     3               109.44003
   10 Bend                     2     1     4               109.44003
   11 Bend                     3     1     5                90.00000
   12 Bend                     3     1     6                90.00000
   13 Bend                     3     1     4               141.11993
   14 Bend                     4     1     5                90.00000
   15 Bend                     4     1     6                90.00000
   16 Torsion                  1     2     5     6           0.00000
   17 Torsion                  1     2     6     5           0.00000
   18 Torsion                  1     3     5     6          -0.00000
   19 Torsion                  1     3     6     5           0.00000
   20 Torsion                  1     4     5     6           0.00000
   21 Torsion                  1     4     6     5          -0.00000


            XYZ format geometry
            -------------------
     6
 geometry
 C                    -0.01079732     0.55427598     0.00000000
 H                     1.06920222     0.55527283     0.00000000
 H                    -0.37079716     0.55394370     1.02000000
 H                    -0.37079716     0.55394370    -1.02000000
 F                    -0.01264332     2.55427513     0.00000000
 Cl                   -0.00876671    -1.64572308     0.00000000

 ==============================================================================
                                internuclear distances
 ------------------------------------------------------------------------------
       center one      |      center two      | atomic units |  angstroms
 ------------------------------------------------------------------------------
    2 H                |   1 C                |     2.04090  |     1.08000
    3 H                |   1 C                |     2.04405  |     1.08167
    4 H                |   1 C                |     2.04405  |     1.08167
 ------------------------------------------------------------------------------
                         number of included internuclear distances:          3
 ==============================================================================



 ==============================================================================
                                 internuclear angles
 ------------------------------------------------------------------------------
        center 1       |       center 2       |       center 3       |  degrees
 ------------------------------------------------------------------------------
    2 H                |   1 C                |   3 H                |   109.44
    2 H                |   1 C                |   4 H                |   109.44
    3 H                |   1 C                |   4 H                |   141.12
 ------------------------------------------------------------------------------
                            number of included internuclear angles:          3
 ==============================================================================





 Summary of "ao basis" -> "" (cartesian)
 ------------------------------------------------------------------------------
       Tag                 Description            Shells   Functions and Types
 ---------------- ------------------------------  ------  ---------------------
 *                         def2-svpd                  on all atoms 




                           NWChem Geometry Optimization
                           ----------------------------




                         СH3Cl+F=CH3F+Cl gas saddle+freq


  no constraints, skipping    0.0000000000000000     
 maximum gradient threshold         (gmax) =   0.000450
 rms gradient threshold             (grms) =   0.000300
 maximum cartesian step threshold   (xmax) =   0.001800
 rms cartesian step threshold       (xrms) =   0.001200
 fixed trust radius                (trust) =   0.100000
 maximum step size to saddle      (sadstp) =   0.100000
 energy precision                  (eprec) =   5.0D-06
 maximum number of steps          (nptopt) =   40
 initial hessian option           (inhess) =    0
 line search option               (linopt) =    0
 hessian update option            (modupd) =    2
 saddle point option              (modsad) =    1
 initial eigen-mode to follow     (moddir) =    0
 initial variable to follow       (vardir) =    0
 follow first negative mode     (firstneg) =    T
 apply conjugacy                    (opcg) =    F
 source of zmatrix                         =   autoz   


          -----------------------
          Transition State Search
          -----------------------


 Names of Z-matrix variables 
    1              2              3              4              5         
    6              7              8              9             10         
   11             12             13             14             15         
   16             17             18             19             20         
   21         

 Variables with the same non-blank name are constrained to be equal


 Using diagonal initial Hessian 
 Scaling for Hessian diagonals: bonds = 1.00  angles = 0.25  torsions = 0.10

          --------
          Step   0
          --------


                         Geometry "geometry" -> "geometry"
                         ---------------------------------

 Output coordinates in angstroms (scale by  1.889725989 to convert to a.u.)

  No.       Tag          Charge          X              Y              Z
 ---- ---------------- ---------- -------------- -------------- --------------
    1 C                    6.0000    -0.01079732     0.55427598     0.00000000
    2 H                    1.0000     1.06920222     0.55527283     0.00000000
    3 H                    1.0000    -0.37079716     0.55394370     1.02000000
    4 H                    1.0000    -0.37079716     0.55394370    -1.02000000
    5 F                    9.0000    -0.01264332     2.55427513     0.00000000
    6 Cl                  17.0000    -0.00876671    -1.64572308     0.00000000

      Atomic Mass 
      ----------- 

      C                 12.000000
      H                  1.007825
      F                 18.998400
      Cl                34.968850


 Effective nuclear repulsion energy (a.u.)      85.0635005391

            Nuclear Dipole moment (a.u.) 
            ----------------------------
        X                 Y               Z
 ---------------- ---------------- ----------------
     0.0000000000     0.0000000000     0.0000000000

      Symmetry information
      --------------------

 Group name             Cs        
 Group number              2
 Group order               2
 No. of unique centers     5

      Symmetry unique atoms

     1    2    3    5    6


                                 NWChem DFT Module
                                 -----------------


                         СH3Cl+F=CH3F+Cl gas saddle+freq


                      Basis "ao basis" -> "ao basis" (cartesian)
                      -----
  C (Carbon)
  ----------
            Exponent  Coefficients 
       -------------- ---------------------------------------------------------
  1 S  1.23840169E+03  0.005457
  1 S  1.86290050E+02  0.040638
  1 S  4.22511763E+01  0.180256
  1 S  1.16765579E+01  0.463151
  1 S  3.59305065E+00  0.440872

  2 S  4.02451474E-01  1.000000

  3 S  1.30901827E-01  1.000000

  4 S  6.70535403E-02  1.000000

  5 P  9.46809706E+00  0.038388
  5 P  2.01035451E+00  0.211170
  5 P  5.47710047E-01  0.513282

  6 P  1.52686138E-01  1.000000

  7 D  8.00000000E-01  1.000000

  8 D  1.17131851E-01  1.000000

  H (Hydrogen)
  ------------
            Exponent  Coefficients 
       -------------- ---------------------------------------------------------
  1 S  1.30107010E+01  0.019682
  1 S  1.96225720E+00  0.137965
  1 S  4.44537960E-01  0.478319

  2 S  1.21949620E-01  1.000000

  3 P  8.00000000E-01  1.000000

  4 P  1.17040991E-01  1.000000

  F (Fluorine)
  ------------
            Exponent  Coefficients 
       -------------- ---------------------------------------------------------
  1 S  2.89483260E+03 -0.005341
  1 S  4.35419391E+02 -0.039904
  1 S  9.88433289E+01 -0.179128
  1 S  2.74851980E+01 -0.467581
  1 S  8.54054982E+00 -0.446531

  2 S  1.06545780E+00  1.000000

  3 S  3.32473467E-01  1.000000

  4 S  9.80977523E-02  1.000000

  5 P  2.26966339E+01 -0.045213
  5 P  4.98723393E+00 -0.237543
  5 P  1.34916140E+00 -0.512874

  6 P  3.48298820E-01  1.000000

  7 P  8.33721483E-02  1.000000

  8 D  1.40000000E+00  1.000000

  9 D  2.23013619E-01  1.000000

  Cl (Chlorine)
  -------------
            Exponent  Coefficients 
       -------------- ---------------------------------------------------------
  1 S  1.04498276E+04  0.001971
  1 S  1.57173652E+03  0.014755
  1 S  3.57120655E+02  0.066679
  1 S  1.00251859E+02  0.172289
  1 S  3.08127276E+01  0.158838

  2 S  5.19237894E+01 -0.100093
  2 S  5.70457610E+00  0.608418
  2 S  2.35083768E+00  0.543522

  3 S  4.46051247E-01  1.000000

  4 S  1.68488562E-01  1.000000

  5 S  5.53442294E-02  1.000000

  6 P  3.07667906E+02 -0.008780
  6 P  7.21020155E+01 -0.063563
  6 P  2.25326803E+01 -0.240164
  6 P  7.89917654E+00 -0.477989
  6 P  2.87672683E+00 -0.385159

  7 P  7.74593640E-01  1.000000

  8 P  2.10376997E-01  1.000000

  9 P  5.00462711E-02  1.000000

 10 D  6.50000000E-01  1.000000

 11 D  1.22848034E-01  1.000000



 Summary of "ao basis" -> "ao basis" (cartesian)
 ------------------------------------------------------------------------------
       Tag                 Description            Shells   Functions and Types
 ---------------- ------------------------------  ------  ---------------------
 C                         def2-svpd                 8       22   4s2p2d
 H                         def2-svpd                 4        8   2s2p
 F                         def2-svpd                 9       25   4s3p2d
 Cl                        def2-svpd                11       29   5s4p2d




 Summary of "ao basis" -> "ao basis" (cartesian)
 ------------------------------------------------------------------------------
       Tag                 Description            Shells   Functions and Types
 ---------------- ------------------------------  ------  ---------------------
 C                         def2-svpd                 8       22   4s2p2d
 H                         def2-svpd                 4        8   2s2p
 F                         def2-svpd                 9       25   4s3p2d
 Cl                        def2-svpd                11       29   5s4p2d


      Symmetry analysis of basis
      --------------------------

        a'         69
        a"         31

  Caching 1-el integrals 

            General Information
            -------------------
          SCF calculation type: DFT
          Wavefunction type:  closed shell.
          No. of atoms     :     6
          No. of electrons :    36
           Alpha electrons :    18
            Beta electrons :    18
          Charge           :    -1
          Spin multiplicity:     1
          Use of symmetry is: on ; symmetry adaption is: on 
          Maximum number of iterations: 200
          AO basis - number of functions:   100
                     number of shells:    40
          Convergence on energy requested:  1.00D-06
          Convergence on density requested:  1.00D-05
          Convergence on gradient requested:  5.00D-04

              XC Information
              --------------
                         B3LYP Method XC Potential
                     Hartree-Fock (Exact) Exchange  0.200          
                        Slater Exchange Functional  0.800 local    
                    Becke 1988 Exchange Functional  0.720 non-local
              Lee-Yang-Parr Correlation Functional  0.810          
                  VWN I RPA Correlation Functional  0.190 local    

             Grid Information
             ----------------
          Grid used for XC integration:  xfine     
          Radial quadrature: Mura-Knowles        
          Angular quadrature: Lebedev. 
          Tag              B.-S. Rad. Rad. Pts. Rad. Cut. Ang. Pts.
          ---              ---------- --------- --------- ---------
          C                   0.70      100          11.0      1454
          H                   0.35      100          11.0      1202
          F                   0.50      100          14.0      1454
          Cl                  1.00      125          13.0      1454
          Grid pruning is: on 
          Number of quadrature shells:   525
          Spatial weights used:  Erf1

          Convergence Information
          -----------------------
          Convergence aids based upon iterative change in 
          total energy or number of iterations. 
          Levelshifting, if invoked, occurs when the 
          HOMO/LUMO gap drops below (HL_TOL):  1.00D-02
          DIIS, if invoked, will attempt to extrapolate 
          using up to (NFOCK): 10 stored Fock matrices.

                    Damping( 0%)  Levelshifting(0.5)       DIIS
                  --------------- ------------------- ---------------
          dE  on:    start            ASAP                start   
          dE off:    2 iters        200 iters           200 iters 


      Screening Tolerance Information
      -------------------------------
          Density screening/tol_rho:  1.00D-10
          AO Gaussian exp screening on grid/accAOfunc:  14
          CD Gaussian exp screening on grid/accCDfunc:  20
          XC Gaussian exp screening on grid/accXCfunc:  20
          Schwarz screening/accCoul:  1.00D-08


      Superposition of Atomic Density Guess
      -------------------------------------

 Sum of atomic energies:        -597.74972035

 Renormalizing density from      35.00 to     36

      Non-variational initial energy
      ------------------------------

 Total energy =    -608.242135
 1-e energy   =   -1023.103045
 2-e energy   =     329.797409
 HOMO         =      -0.061127
 LUMO         =       0.233070


      Symmetry analysis of molecular orbitals - initial
      -------------------------------------------------

  Numbering of irreducible representations: 

     1 a'          2 a"      

  Orbital symmetries:

     1 a'          2 a'          3 a'          4 a'          5 a'      
     6 a"          7 a'          8 a'          9 a'         10 a'      
    11 a"         12 a'         13 a'         14 a"         15 a'      
    16 a'         17 a"         18 a'         19 a'         20 a'      
    21 a'         22 a"         23 a'         24 a'         25 a'      
    26 a'         27 a"         28 a'      

  WARNING: movecs_in_org=atomic not equal to movecs_in=./Sn2_saddle.movecs
   Time after variat. SCF:      0.6
   Time prior to 1st pass:      0.6

 Integral file          = ./Sn2_saddle.aoints.0
 Record size in doubles =    65536    No. of integs per rec  =    43688
 Max. records in memory =      261    Max. records in file   =  1850208
 No. of bits per label  =        8    No. of bits per value  =       64


 #quartets = 2.251D+05 #integrals = 6.132D+06 #direct =  0.0% #cached =100.0%


 Grid_pts file          = ./Sn2_saddle.gridpts.0
 Record size in doubles =  12289        No. of grid_pts per rec  =   3070
 Max. records in memory =    275        Max. recs in file   =   9866976

 Grid integrated density:      36.000001338356
 Requested integration accuracy:   0.10E-07

           Memory utilization after 1st SCF pass: 
           Heap Space remaining (MW):       28.66            28663800
          Stack Space remaining (MW):       49.15            49151324

   convergence    iter        energy       DeltaE   RMS-Dens  Diis-err    time
 ---------------- ----- ----------------- --------- --------- ---------  ------
 d= 0,ls=0.0,diis     1   -599.6117639656 -6.85D+02  5.12D-02  1.28D+00    14.4
 Grid integrated density:      36.000001480130
 Requested integration accuracy:   0.10E-07
 d= 0,ls=0.0,diis     2   -599.0660893245  5.46D-01  1.95D-02  6.20D+00    26.0
 Grid integrated density:      36.000001468174
 Requested integration accuracy:   0.10E-07
 d= 0,ls=0.0,diis     3   -599.7304783016 -6.64D-01  5.47D-03  5.06D-01    38.3
 Grid integrated density:      36.000001412531
 Requested integration accuracy:   0.10E-07
 d= 0,ls=0.0,diis     4   -599.7714530119 -4.10D-02  1.95D-03  3.04D-02    52.9
 d= 0,ls=0.0,diis     5   -599.7738192619 -2.37D-03  5.93D-04  1.85D-03    67.1
  Resetting Diis
 d= 0,ls=0.0,diis     6   -599.7740205561 -2.01D-04  2.32D-04  2.99D-04    78.7
 d= 0,ls=0.0,diis     7   -599.7740666983 -4.61D-05  4.09D-05  2.57D-06    90.8
 d= 0,ls=0.0,diis     8   -599.7740659599  7.38D-07  1.86D-05  1.20D-05   104.1
 d= 0,ls=0.0,diis     9   -599.7740669770 -1.02D-06  5.13D-06  8.25D-08   115.5
 d= 0,ls=0.0,diis    10   -599.7740669862 -9.21D-09  1.20D-06  1.24D-08   128.3


         Total DFT energy =     -599.774066986206
      One electron energy =    -1005.137951002089
           Coulomb energy =      365.632685768186
    Exchange-Corr. energy =      -45.332302291383
 Nuclear repulsion energy =       85.063500539081

 Numeric. integr. density =       35.999999865236

     Total iterative time =    127.7s



                  Occupations of the irreducible representations
                  ----------------------------------------------

                     irrep           alpha         beta
                     --------     --------     --------
                     a'               14.0         14.0
                     a"                4.0          4.0


                       DFT Final Molecular Orbital Analysis
                       ------------------------------------

 Vector    1  Occ=2.000000D+00  E=-1.013095D+02  Symmetry=a'
              MO Center= -8.8D-03, -1.6D+00, -4.2D-20, r^2= 3.2D-03
   Bfn.  Coefficient  Atom+Function         Bfn.  Coefficient  Atom+Function  
  ----- ------------  ---------------      ----- ------------  ---------------
    72      0.993387  6 Cl s                 73      0.030508  6 Cl s          
    74     -0.025215  6 Cl s          

 Vector    2  Occ=2.000000D+00  E=-2.439514D+01  Symmetry=a'
              MO Center= -1.3D-02,  2.6D+00,  7.1D-19, r^2= 1.2D-02
   Bfn.  Coefficient  Atom+Function         Bfn.  Coefficient  Atom+Function  
  ----- ------------  ---------------      ----- ------------  ---------------
    47      0.985564  5 F  s                 48     -0.047250  5 F  s          

 Vector    3  Occ=2.000000D+00  E=-1.009612D+01  Symmetry=a'
              MO Center= -1.1D-02,  5.5D-01, -5.8D-17, r^2= 2.8D-02
   Bfn.  Coefficient  Atom+Function         Bfn.  Coefficient  Atom+Function  
  ----- ------------  ---------------      ----- ------------  ---------------
     1      0.987547  1 C  s                  2      0.063152  1 C  s          
     4     -0.055423  1 C  s                  3     -0.054857  1 C  s          

 Vector    4  Occ=2.000000D+00  E=-9.240194D+00  Symmetry=a'
              MO Center= -8.8D-03, -1.6D+00,  1.1D-17, r^2= 6.6D-02
   Bfn.  Coefficient  Atom+Function         Bfn.  Coefficient  Atom+Function  
  ----- ------------  ---------------      ----- ------------  ---------------
    73      1.013642  6 Cl s                 72     -0.311084  6 Cl s          
    74      0.071544  6 Cl s          

 Vector    5  Occ=2.000000D+00  E=-7.006756D+00  Symmetry=a'
              MO Center= -8.8D-03, -1.6D+00, -1.4D-17, r^2= 5.8D-02
   Bfn.  Coefficient  Atom+Function         Bfn.  Coefficient  Atom+Function  
  ----- ------------  ---------------      ----- ------------  ---------------
    78      0.980458  6 Cl py                81     -0.053801  6 Cl py         

 Vector    6  Occ=2.000000D+00  E=-7.002557D+00  Symmetry=a"
              MO Center= -8.8D-03, -1.6D+00, -1.1D-17, r^2= 5.8D-02
   Bfn.  Coefficient  Atom+Function         Bfn.  Coefficient  Atom+Function  
  ----- ------------  ---------------      ----- ------------  ---------------
    79      0.981014  6 Cl pz                82     -0.050941  6 Cl pz         

 Vector    7  Occ=2.000000D+00  E=-7.002469D+00  Symmetry=a'
              MO Center= -8.8D-03, -1.6D+00,  1.3D-17, r^2= 5.8D-02
   Bfn.  Coefficient  Atom+Function         Bfn.  Coefficient  Atom+Function  
  ----- ------------  ---------------      ----- ------------  ---------------
    77      0.981021  6 Cl px                80     -0.050884  6 Cl px         

 Vector    8  Occ=2.000000D+00  E=-8.112354D-01  Symmetry=a'
              MO Center= -1.2D-02,  2.5D+00,  9.7D-17, r^2= 4.2D-01
   Bfn.  Coefficient  Atom+Function         Bfn.  Coefficient  Atom+Function  
  ----- ------------  ---------------      ----- ------------  ---------------
    48      0.615583  5 F  s                 49      0.429901  5 F  s          
    47      0.307957  5 F  s                  3      0.137484  1 C  s          
    32     -0.062275  3 H  s                 40     -0.062275  4 H  s          
    50      0.051376  5 F  s                  2      0.049173  1 C  s          
     4     -0.045486  1 C  s                 24     -0.034026  2 H  s          

 Vector    9  Occ=2.000000D+00  E=-5.991538D-01  Symmetry=a'
              MO Center=  8.5D-03, -1.1D+00,  1.2D-15, r^2= 1.6D+00
   Bfn.  Coefficient  Atom+Function         Bfn.  Coefficient  Atom+Function  
  ----- ------------  ---------------      ----- ------------  ---------------
     3      0.830811  1 C  s                 74      0.620820  6 Cl s          
    73     -0.458194  6 Cl s                 32     -0.348992  3 H  s          
    40     -0.348992  4 H  s                 75      0.286595  6 Cl s          
     4     -0.253978  1 C  s                  2      0.243041  1 C  s          
    22      0.199141  1 C  dzz               24     -0.178745  2 H  s          

 Vector   10  Occ=2.000000D+00  E=-5.029310D-01  Symmetry=a'
              MO Center=  5.8D-02, -1.2D-02,  1.8D-15, r^2= 2.2D+00
   Bfn.  Coefficient  Atom+Function         Bfn.  Coefficient  Atom+Function  
  ----- ------------  ---------------      ----- ------------  ---------------
     3      1.545408  1 C  s                 32     -0.646064  3 H  s          
    40     -0.646064  4 H  s                  4     -0.548675  1 C  s          
     2      0.473010  1 C  s                 74     -0.407199  6 Cl s          
    22      0.404727  1 C  dzz               24     -0.297949  2 H  s          
    73      0.286146  6 Cl s                 17      0.236846  1 C  dxx        

 Vector   11  Occ=2.000000D+00  E=-3.040647D-01  Symmetry=a"
              MO Center= -1.7D-01,  5.3D-01, -1.3D-15, r^2= 1.3D+00
   Bfn.  Coefficient  Atom+Function         Bfn.  Coefficient  Atom+Function  
  ----- ------------  ---------------      ----- ------------  ---------------
     7      0.459537  1 C  pz                31      0.331048  3 H  s          
    39     -0.331048  4 H  s                 32      0.308410  3 H  s          
    40     -0.308410  4 H  s                 19      0.224260  1 C  dxz        
    85      0.059847  6 Cl pz                38     -0.056908  3 H  pz         
    46     -0.056908  4 H  pz                53     -0.056088  5 F  pz         

 Vector   12  Occ=2.000000D+00  E=-2.532634D-01  Symmetry=a'
              MO Center=  2.2D-01,  5.1D-01, -6.0D-16, r^2= 1.4D+00
   Bfn.  Coefficient  Atom+Function         Bfn.  Coefficient  Atom+Function  
  ----- ------------  ---------------      ----- ------------  ---------------
     5      0.458317  1 C  px                 3      0.414577  1 C  s          
    23      0.371559  2 H  s                 32     -0.336176  3 H  s          
    40     -0.336176  4 H  s                 22      0.188829  1 C  dzz        
    31     -0.171965  3 H  s                 39     -0.171965  4 H  s          
     8      0.126005  1 C  px                83      0.088939  6 Cl px         

 Vector   13  Occ=2.000000D+00  E=-1.782366D-01  Symmetry=a'
              MO Center= -8.6D-03,  3.8D-01, -3.2D-16, r^2= 4.3D+00
   Bfn.  Coefficient  Atom+Function         Bfn.  Coefficient  Atom+Function  
  ----- ------------  ---------------      ----- ------------  ---------------
    52      0.367021  5 F  py                84     -0.365861  6 Cl py         
     6      0.293266  1 C  py                81     -0.283688  6 Cl py         
    55     -0.233044  5 F  py                78     -0.167596  6 Cl py         
     9      0.159198  1 C  py                 4      0.103997  1 C  s          
    87     -0.090490  6 Cl py                74      0.088946  6 Cl s          

 Vector   14  Occ=2.000000D+00  E=-1.142781D-01  Symmetry=a"
              MO Center= -1.1D-02,  5.3D-01, -1.0D-15, r^2= 5.3D+00
   Bfn.  Coefficient  Atom+Function         Bfn.  Coefficient  Atom+Function  
  ----- ------------  ---------------      ----- ------------  ---------------
    53      0.464102  5 F  pz                85      0.405592  6 Cl pz         
    82      0.322621  6 Cl pz                56     -0.300718  5 F  pz         
    79      0.186496  6 Cl pz                59     -0.110057  5 F  pz         
    88      0.096249  6 Cl pz                21     -0.075214  1 C  dyz        

 Vector   15  Occ=2.000000D+00  E=-1.133846D-01  Symmetry=a'
              MO Center= -8.5D-03,  6.6D-01,  5.9D-16, r^2= 5.3D+00
   Bfn.  Coefficient  Atom+Function         Bfn.  Coefficient  Atom+Function  
  ----- ------------  ---------------      ----- ------------  ---------------
    51      0.478111  5 F  px                83      0.393913  6 Cl px         
    80      0.312856  6 Cl px                54     -0.310414  5 F  px         
    77      0.180816  6 Cl px                57     -0.113163  5 F  px         
    86      0.091779  6 Cl px                18     -0.058765  1 C  dxy        

 Vector   16  Occ=2.000000D+00  E=-1.032875D-01  Symmetry=a"
              MO Center= -1.4D-02,  3.9D-01, -3.3D-15, r^2= 5.3D+00
   Bfn.  Coefficient  Atom+Function         Bfn.  Coefficient  Atom+Function  
  ----- ------------  ---------------      ----- ------------  ---------------
    53      0.450227  5 F  pz                85     -0.430441  6 Cl pz         
    82     -0.334381  6 Cl pz                56     -0.293560  5 F  pz         
    79     -0.193187  6 Cl pz                 7      0.117731  1 C  pz         
    59     -0.113713  5 F  pz                88     -0.112177  6 Cl pz         
    31      0.084505  3 H  s                 39     -0.084505  4 H  s          

 Vector   17  Occ=2.000000D+00  E=-1.006819D-01  Symmetry=a'
              MO Center=  3.9D-04,  2.8D-01,  3.9D-15, r^2= 5.2D+00
   Bfn.  Coefficient  Atom+Function         Bfn.  Coefficient  Atom+Function  
  ----- ------------  ---------------      ----- ------------  ---------------
    83     -0.433491  6 Cl px                51      0.429307  5 F  px         
    80     -0.337810  6 Cl px                54     -0.280522  5 F  px         
     3      0.250123  1 C  s                 77     -0.194928  6 Cl px         
    32     -0.168235  3 H  s                 40     -0.168235  4 H  s          
     5      0.140668  1 C  px                23      0.132454  2 H  s          

 Vector   18  Occ=2.000000D+00  E=-9.185625D-02  Symmetry=a'
              MO Center= -1.4D-02,  6.6D-01,  5.3D-16, r^2= 5.3D+00
   Bfn.  Coefficient  Atom+Function         Bfn.  Coefficient  Atom+Function  
  ----- ------------  ---------------      ----- ------------  ---------------
    52      0.480042  5 F  py                84      0.422515  6 Cl py         
     3     -0.407033  1 C  s                 55     -0.321302  5 F  py         
    81      0.313686  6 Cl py                78      0.182044  6 Cl py         
    32      0.141856  3 H  s                 40      0.141856  4 H  s          
    58     -0.141670  5 F  py                 2     -0.128247  1 C  s          

 Vector   19  Occ=0.000000D+00  E= 1.466998D-01  Symmetry=a'
              MO Center= -6.6D-03, -8.4D-01, -4.0D-15, r^2= 7.7D+00
   Bfn.  Coefficient  Atom+Function         Bfn.  Coefficient  Atom+Function  
  ----- ------------  ---------------      ----- ------------  ---------------
    76      1.395153  6 Cl s                  3      1.094487  1 C  s          
    75     -0.786626  6 Cl s                 87     -0.608768  6 Cl py         
     6     -0.477554  1 C  py                 9     -0.438391  1 C  py         
     4     -0.432829  1 C  s                 98     -0.418261  6 Cl dyy        
   100     -0.367289  6 Cl dzz               95     -0.363926  6 Cl dxx        

 Vector   20  Occ=0.000000D+00  E= 1.565815D-01  Symmetry=a'
              MO Center=  5.8D-02, -3.5D-01, -9.6D-15, r^2= 8.8D+00
   Bfn.  Coefficient  Atom+Function         Bfn.  Coefficient  Atom+Function  
  ----- ------------  ---------------      ----- ------------  ---------------
     3      6.308663  1 C  s                  4     -4.915757  1 C  s          
    32     -1.904095  3 H  s                 40     -1.904095  4 H  s          
    76     -1.888585  6 Cl s                 22      1.563587  1 C  dzz        
    24     -1.276202  2 H  s                 17      1.181574  1 C  dxx        
    75      0.836862  6 Cl s                 20      0.755243  1 C  dyy        

 Vector   21  Occ=0.000000D+00  E= 2.048960D-01  Symmetry=a'
              MO Center= -1.4D-02, -1.7D+00, -5.4D-15, r^2= 9.8D+00
   Bfn.  Coefficient  Atom+Function         Bfn.  Coefficient  Atom+Function  
  ----- ------------  ---------------      ----- ------------  ---------------
    87      1.622432  6 Cl py                20     -0.803337  1 C  dyy        
    98      0.740183  6 Cl dyy               75      0.508306  6 Cl s          
     3     -0.487294  1 C  s                 50      0.350524  5 F  s          
     6     -0.337027  1 C  py                58     -0.336360  5 F  py         
   100      0.248203  6 Cl dzz               81     -0.226416  6 Cl py         

 Vector   22  Occ=0.000000D+00  E= 2.146146D-01  Symmetry=a"
              MO Center= -1.6D-01, -1.1D+00, -6.4D-14, r^2= 9.3D+00
   Bfn.  Coefficient  Atom+Function         Bfn.  Coefficient  Atom+Function  
  ----- ------------  ---------------      ----- ------------  ---------------
    32      1.892778  3 H  s                 40     -1.892778  4 H  s          
    88     -1.107144  6 Cl pz                10     -0.861640  1 C  pz         
    38     -0.865635  3 H  pz                46     -0.865635  4 H  pz         
    19      0.716009  1 C  dxz               30     -0.365178  2 H  pz         
    85      0.352220  6 Cl pz                99     -0.276174  6 Cl dyz        

 Vector   23  Occ=0.000000D+00  E= 2.192020D-01  Symmetry=a'
              MO Center=  3.3D-01, -1.2D+00, -1.0D-14, r^2= 9.0D+00
   Bfn.  Coefficient  Atom+Function         Bfn.  Coefficient  Atom+Function  
  ----- ------------  ---------------      ----- ------------  ---------------
    24      2.081708  2 H  s                 86     -1.136503  6 Cl px         
    28     -0.984322  2 H  px                32     -0.863500  3 H  s          
    40     -0.863500  4 H  s                  3     -0.707143  1 C  s          
     8     -0.592282  1 C  px                 4      0.492259  1 C  s          
    83      0.358000  6 Cl px                17     -0.321880  1 C  dxx        

 Vector   24  Occ=0.000000D+00  E= 2.360516D-01  Symmetry=a'
              MO Center=  1.8D-02,  1.1D+00,  6.4D-14, r^2= 1.3D+01
   Bfn.  Coefficient  Atom+Function         Bfn.  Coefficient  Atom+Function  
  ----- ------------  ---------------      ----- ------------  ---------------
     4    -12.914629  1 C  s                  3     12.546460  1 C  s          
    76      5.213679  6 Cl s                 32     -3.782040  3 H  s          
    40     -3.782040  4 H  s                 22      3.092112  1 C  dzz        
    24     -2.372101  2 H  s                 50      2.336465  5 F  s          
    17      2.297795  1 C  dxx               87      2.230458  6 Cl py         

 Vector   25  Occ=0.000000D+00  E= 2.565550D-01  Symmetry=a'
              MO Center= -1.5D-01, -2.8D-02,  9.4D-15, r^2= 6.6D+00
   Bfn.  Coefficient  Atom+Function         Bfn.  Coefficient  Atom+Function  
  ----- ------------  ---------------      ----- ------------  ---------------
     3      4.170723  1 C  s                 32     -1.605291  3 H  s          
    40     -1.605291  4 H  s                 38      1.051562  3 H  pz         
    46     -1.051562  4 H  pz                 4     -0.990639  1 C  s          
    76     -0.974330  6 Cl s                 22      0.627507  1 C  dzz        
    87     -0.621140  6 Cl py                17      0.606966  1 C  dxx        

 Vector   26  Occ=0.000000D+00  E= 2.773219D-01  Symmetry=a"
              MO Center= -3.6D-01,  1.4D-01, -4.8D-14, r^2= 8.6D+00
   Bfn.  Coefficient  Atom+Function         Bfn.  Coefficient  Atom+Function  
  ----- ------------  ---------------      ----- ------------  ---------------
    38      0.890494  3 H  pz                46      0.890494  4 H  pz         
    36     -0.737440  3 H  px                44      0.737440  4 H  px         
    88     -0.718177  6 Cl pz                32     -0.678569  3 H  s          
    40      0.678569  4 H  s                 19      0.667292  1 C  dxz        
    10      0.519453  1 C  pz                59      0.512714  5 F  pz         

 Vector   27  Occ=0.000000D+00  E= 2.943035D-01  Symmetry=a"
              MO Center=  4.8D-01,  4.3D-01,  7.6D-15, r^2= 7.3D+00
   Bfn.  Coefficient  Atom+Function         Bfn.  Coefficient  Atom+Function  
  ----- ------------  ---------------      ----- ------------  ---------------
    19      2.934618  1 C  dxz               32      2.525258  3 H  s          
    40     -2.525258  4 H  s                 30     -1.785294  2 H  pz         
    38     -1.012877  3 H  pz                46     -1.012877  4 H  pz         
    36     -0.866417  3 H  px                44      0.866417  4 H  px         
    21      0.490232  1 C  dyz               59     -0.489529  5 F  pz         

 Vector   28  Occ=0.000000D+00  E= 2.943111D-01  Symmetry=a'
              MO Center=  3.1D-01,  1.4D+00,  5.0D-15, r^2= 1.3D+01
   Bfn.  Coefficient  Atom+Function         Bfn.  Coefficient  Atom+Function  
  ----- ------------  ---------------      ----- ------------  ---------------
    76     -3.463524  6 Cl s                  4      3.171281  1 C  s          
     3      1.871967  1 C  s                 24     -1.746768  2 H  s          
    87     -1.694236  6 Cl py                58     -1.282708  5 F  py         
    75      1.259321  6 Cl s                 28      1.134590  2 H  px         
    32     -0.946553  3 H  s                 40     -0.946553  4 H  s          

 Vector   29  Occ=0.000000D+00  E= 3.044679D-01  Symmetry=a'
              MO Center= -4.6D-01,  1.4D+00, -2.2D-14, r^2= 9.2D+00
   Bfn.  Coefficient  Atom+Function         Bfn.  Coefficient  Atom+Function  
  ----- ------------  ---------------      ----- ------------  ---------------
     3      6.475055  1 C  s                  4     -6.084422  1 C  s          
    24     -2.497331  2 H  s                 76      1.989987  6 Cl s          
    20      1.393353  1 C  dyy               28      1.303962  2 H  px         
    17      1.134741  1 C  dxx               50      0.873316  5 F  s          
    87      0.867564  6 Cl py                22      0.853711  1 C  dzz        

 Vector   30  Occ=0.000000D+00  E= 3.610331D-01  Symmetry=a"
              MO Center= -1.5D-01,  6.7D-01,  2.6D-14, r^2= 9.2D+00
   Bfn.  Coefficient  Atom+Function         Bfn.  Coefficient  Atom+Function  
  ----- ------------  ---------------      ----- ------------  ---------------
    21      1.318429  1 C  dyz               59     -0.949353  5 F  pz         
    99      0.934357  6 Cl dyz               37     -0.642179  3 H  py         
    45      0.642179  4 H  py                19     -0.614348  1 C  dxz        
    30      0.526990  2 H  pz                38      0.377166  3 H  pz         
    46      0.377166  4 H  pz                10     -0.261056  1 C  pz         

 Vector   31  Occ=0.000000D+00  E= 3.681531D-01  Symmetry=a'
              MO Center=  2.8D-01,  6.2D-01, -3.7D-14, r^2= 9.1D+00
   Bfn.  Coefficient  Atom+Function         Bfn.  Coefficient  Atom+Function  
  ----- ------------  ---------------      ----- ------------  ---------------
     3      9.636108  1 C  s                  4     -4.906842  1 C  s          
    32     -3.073694  3 H  s                 40     -3.073694  4 H  s          
    22      2.156771  1 C  dzz               24     -1.575817  2 H  s          
    20      1.265607  1 C  dyy               28      1.220142  2 H  px         
    17      1.198762  1 C  dxx               96      0.968040  6 Cl dxy        

 Vector   32  Occ=0.000000D+00  E= 3.834821D-01  Symmetry=a'
              MO Center= -1.4D-01,  7.1D-01, -4.6D-14, r^2= 8.8D+00
   Bfn.  Coefficient  Atom+Function         Bfn.  Coefficient  Atom+Function  
  ----- ------------  ---------------      ----- ------------  ---------------
     3     34.922154  1 C  s                  4    -13.933997  1 C  s          
    32    -12.559061  3 H  s                 40    -12.559061  4 H  s          
    22      7.900310  1 C  dzz               24     -6.651085  2 H  s          
    17      4.416136  1 C  dxx               20      4.051415  1 C  dyy        
    38      3.201468  3 H  pz                46     -3.201468  4 H  pz         

 Vector   33  Occ=0.000000D+00  E= 4.078549D-01  Symmetry=a'
              MO Center=  1.4D-01, -8.2D-01, -2.8D-15, r^2= 6.0D+00
   Bfn.  Coefficient  Atom+Function         Bfn.  Coefficient  Atom+Function  
  ----- ------------  ---------------      ----- ------------  ---------------
     3      4.893609  1 C  s                 32     -2.161841  3 H  s          
    40     -2.161841  4 H  s                  4     -1.457226  1 C  s          
    22      0.861545  1 C  dzz              100      0.795580  6 Cl dzz        
    17      0.652935  1 C  dxx               95     -0.560627  6 Cl dxx        
    38      0.538454  3 H  pz                46     -0.538454  4 H  pz         

 Vector   34  Occ=0.000000D+00  E= 4.163572D-01  Symmetry=a"
              MO Center= -1.1D-01, -6.5D-01, -9.3D-15, r^2= 6.6D+00
   Bfn.  Coefficient  Atom+Function         Bfn.  Coefficient  Atom+Function  
  ----- ------------  ---------------      ----- ------------  ---------------
    97      1.358333  6 Cl dxz               32      0.852560  3 H  s          
    40     -0.852560  4 H  s                 37      0.636745  3 H  py         
    45     -0.636745  4 H  py                21     -0.573880  1 C  dyz        
    59     -0.517633  5 F  pz                19      0.475318  1 C  dxz        
    30     -0.437862  2 H  pz                36     -0.268691  3 H  px         

 Vector   35  Occ=0.000000D+00  E= 4.257812D-01  Symmetry=a'
              MO Center= -6.7D-02,  1.4D+00, -1.2D-14, r^2= 1.0D+01
   Bfn.  Coefficient  Atom+Function         Bfn.  Coefficient  Atom+Function  
  ----- ------------  ---------------      ----- ------------  ---------------
     3     23.032695  1 C  s                  4    -18.186917  1 C  s          
    50     10.918155  5 F  s                 32     -7.888044  3 H  s          
    40     -7.888044  4 H  s                 22      5.028025  1 C  dzz        
    24     -4.155532  2 H  s                 58     -3.443410  5 F  py         
    76      3.213629  6 Cl s                 17      3.099881  1 C  dxx        

 Vector   36  Occ=0.000000D+00  E= 4.447545D-01  Symmetry=a"
              MO Center=  8.3D-02,  3.7D-01, -8.8D-14, r^2= 7.9D+00
   Bfn.  Coefficient  Atom+Function         Bfn.  Coefficient  Atom+Function  
  ----- ------------  ---------------      ----- ------------  ---------------
    19      1.165251  1 C  dxz               59      0.945866  5 F  pz         
    30     -0.851069  2 H  pz                99      0.821587  6 Cl dyz        
    97      0.697268  6 Cl dxz               36     -0.594652  3 H  px         
    44      0.594652  4 H  px                21     -0.506901  1 C  dyz        
    10      0.469328  1 C  pz                37     -0.362045  3 H  py         

 Vector   37  Occ=0.000000D+00  E= 4.488607D-01  Symmetry=a'
              MO Center= -3.0D-01, -2.8D-01,  1.2D-12, r^2= 7.9D+00
   Bfn.  Coefficient  Atom+Function         Bfn.  Coefficient  Atom+Function  
  ----- ------------  ---------------      ----- ------------  ---------------
     3     33.562001  1 C  s                 32    -13.773200  3 H  s          
    40    -13.773200  4 H  s                  4     -9.294801  1 C  s          
    24     -6.462296  2 H  s                 22      6.022134  1 C  dzz        
    76      4.568613  6 Cl s                 38      3.714710  3 H  pz         
    46     -3.714710  4 H  pz                17      2.639492  1 C  dxx        

 Vector   38  Occ=0.000000D+00  E= 4.568111D-01  Symmetry=a'
              MO Center= -8.7D-03,  4.2D-01,  3.8D-14, r^2= 7.8D+00
   Bfn.  Coefficient  Atom+Function         Bfn.  Coefficient  Atom+Function  
  ----- ------------  ---------------      ----- ------------  ---------------
     3      2.757586  1 C  s                  4     -2.729947  1 C  s          
    76      1.884676  6 Cl s                 57     -0.928307  5 F  px         
    32     -0.913119  3 H  s                 40     -0.913119  4 H  s          
    96     -0.844400  6 Cl dxy              100     -0.727129  6 Cl dzz        
    24      0.660903  2 H  s                 18      0.600621  1 C  dxy        

 Vector   39  Occ=0.000000D+00  E= 4.850817D-01  Symmetry=a'
              MO Center= -6.1D-03, -9.5D-01, -1.5D-16, r^2= 8.5D+00
   Bfn.  Coefficient  Atom+Function         Bfn.  Coefficient  Atom+Function  
  ----- ------------  ---------------      ----- ------------  ---------------
     3     11.304983  1 C  s                 32     -6.873527  3 H  s          
    40     -6.873527  4 H  s                 76     -3.191454  6 Cl s          
    38      2.605520  3 H  pz                46     -2.605520  4 H  pz         
    98      2.075799  6 Cl dyy                8     -2.000714  1 C  px         
    22      1.258483  1 C  dzz               17      1.204854  1 C  dxx        

 Vector   40  Occ=0.000000D+00  E= 4.879631D-01  Symmetry=a"
              MO Center=  5.2D-02,  5.8D-01, -3.7D-14, r^2= 6.1D+00
   Bfn.  Coefficient  Atom+Function         Bfn.  Coefficient  Atom+Function  
  ----- ------------  ---------------      ----- ------------  ---------------
    32      1.861612  3 H  s                 40     -1.861612  4 H  s          
    19      1.755403  1 C  dxz               36     -1.404218  3 H  px         
    44      1.404218  4 H  px                38     -1.201795  3 H  pz         
    46     -1.201795  4 H  pz                10     -1.154931  1 C  pz         
    30      1.021312  2 H  pz                37      0.292248  3 H  py         

 Vector   41  Occ=0.000000D+00  E= 5.011629D-01  Symmetry=a'
              MO Center=  5.5D-01, -7.5D-01,  7.9D-14, r^2= 7.9D+00
   Bfn.  Coefficient  Atom+Function         Bfn.  Coefficient  Atom+Function  
  ----- ------------  ---------------      ----- ------------  ---------------
    24     -5.919114  2 H  s                  3      5.546435  1 C  s          
    28      2.918847  2 H  px                 8      2.439914  1 C  px         
    98      1.847990  6 Cl dyy               22      1.601563  1 C  dzz        
    32     -1.533191  3 H  s                 40     -1.533191  4 H  s          
    76     -1.226519  6 Cl s                  4      1.084394  1 C  s          

 Vector   42  Occ=0.000000D+00  E= 5.347415D-01  Symmetry=a'
              MO Center= -4.4D-02, -7.4D-01, -2.2D-14, r^2= 8.4D+00
   Bfn.  Coefficient  Atom+Function         Bfn.  Coefficient  Atom+Function  
  ----- ------------  ---------------      ----- ------------  ---------------
     4     10.511360  1 C  s                  3      8.337854  1 C  s          
    76     -6.264167  6 Cl s                 32     -5.348419  3 H  s          
    40     -5.348419  4 H  s                 87     -2.663911  6 Cl py         
    24     -2.158784  2 H  s                 17     -1.655942  1 C  dxx        
    95      1.502226  6 Cl dxx              100      1.313951  6 Cl dzz        

 Vector   43  Occ=0.000000D+00  E= 5.382981D-01  Symmetry=a"
              MO Center= -4.6D-01,  1.8D-01, -9.4D-13, r^2= 6.4D+00
   Bfn.  Coefficient  Atom+Function         Bfn.  Coefficient  Atom+Function  
  ----- ------------  ---------------      ----- ------------  ---------------
    32      5.293720  3 H  s                 40     -5.293720  4 H  s          
    10     -3.891781  1 C  pz                19     -2.338682  1 C  dxz        
    38     -2.278499  3 H  pz                46     -2.278499  4 H  pz         
    36      1.714701  3 H  px                44     -1.714701  4 H  px         
    99     -1.323737  6 Cl dyz               37     -1.049940  3 H  py         

 Vector   44  Occ=0.000000D+00  E= 5.679575D-01  Symmetry=a'
              MO Center=  3.3D-01, -1.9D-01, -1.9D-13, r^2= 7.7D+00
   Bfn.  Coefficient  Atom+Function         Bfn.  Coefficient  Atom+Function  
  ----- ------------  ---------------      ----- ------------  ---------------
     3      3.437983  1 C  s                 29      2.054026  2 H  py         
     4     -2.026660  1 C  s                 32     -1.935088  3 H  s          
    40     -1.935088  4 H  s                 96      1.546648  6 Cl dxy        
    37     -1.336120  3 H  py                45     -1.336120  4 H  py         
    50      1.109643  5 F  s                 18     -0.967684  1 C  dxy        

 Vector   45  Occ=0.000000D+00  E= 5.742066D-01  Symmetry=a"
              MO Center= -3.4D-01, -1.5D-01,  2.0D-13, r^2= 7.7D+00
   Bfn.  Coefficient  Atom+Function         Bfn.  Coefficient  Atom+Function  
  ----- ------------  ---------------      ----- ------------  ---------------
    32      3.323647  3 H  s                 40     -3.323647  4 H  s          
    10     -2.357600  1 C  pz                37      1.902424  3 H  py         
    45     -1.902424  4 H  py                38     -1.764762  3 H  pz         
    46     -1.764762  4 H  pz                99      1.676273  6 Cl dyz        
    21     -1.301684  1 C  dyz               36      1.122832  3 H  px         

 Vector   46  Occ=0.000000D+00  E= 5.890627D-01  Symmetry=a'
              MO Center=  1.1D-01,  5.5D-01, -2.6D-14, r^2= 8.8D+00
   Bfn.  Coefficient  Atom+Function         Bfn.  Coefficient  Atom+Function  
  ----- ------------  ---------------      ----- ------------  ---------------
    50      7.744429  5 F  s                 58     -2.640875  5 F  py         
    29     -2.189432  2 H  py                 4     -2.156174  1 C  s          
    49     -2.064791  5 F  s                 37     -1.881797  3 H  py         
    45     -1.881797  4 H  py                 3      1.778568  1 C  s          
     9      1.634219  1 C  py                32     -1.419098  3 H  s          

 Vector   47  Occ=0.000000D+00  E= 6.086430D-01  Symmetry=a"
              MO Center=  7.9D-01,  3.6D-01,  2.5D-12, r^2= 5.5D+00
   Bfn.  Coefficient  Atom+Function         Bfn.  Coefficient  Atom+Function  
  ----- ------------  ---------------      ----- ------------  ---------------
    19     11.729649  1 C  dxz               32     11.143445  3 H  s          
    40    -11.143445  4 H  s                 30     -4.918908  2 H  pz         
    10     -3.716704  1 C  pz                38     -3.431053  3 H  pz         
    46     -3.431053  4 H  pz                36     -1.858992  3 H  px         
    44      1.858992  4 H  px                21     -0.996102  1 C  dyz        

 Vector   48  Occ=0.000000D+00  E= 6.131703D-01  Symmetry=a'
              MO Center= -3.8D-01,  2.9D-01, -4.4D-12, r^2= 6.9D+00
   Bfn.  Coefficient  Atom+Function         Bfn.  Coefficient  Atom+Function  
  ----- ------------  ---------------      ----- ------------  ---------------
     3     19.603547  1 C  s                 24    -18.655741  2 H  s          
     4     -9.825582  1 C  s                 17      6.409034  1 C  dxx        
    28      5.838222  2 H  px                 8      4.010509  1 C  px         
    36      2.535297  3 H  px                44      2.535297  4 H  px         
    50      2.509998  5 F  s                 20      2.242090  1 C  dyy        

 Vector   49  Occ=0.000000D+00  E= 6.239603D-01  Symmetry=a'
              MO Center= -1.6D-01,  2.8D-01, -1.1D-13, r^2= 6.8D+00
   Bfn.  Coefficient  Atom+Function         Bfn.  Coefficient  Atom+Function  
  ----- ------------  ---------------      ----- ------------  ---------------
    18      4.856473  1 C  dxy               24      2.957349  2 H  s          
    29     -2.277144  2 H  py                32     -2.211598  3 H  s          
    40     -2.211598  4 H  s                  4      1.554575  1 C  s          
    96      1.557758  6 Cl dxy               22      1.428934  1 C  dzz        
     3     -1.350335  1 C  s                 50      1.218479  5 F  s          

 Vector   50  Occ=0.000000D+00  E= 6.316815D-01  Symmetry=a"
              MO Center=  1.8D-01,  4.3D-01,  2.9D-14, r^2= 6.4D+00
   Bfn.  Coefficient  Atom+Function         Bfn.  Coefficient  Atom+Function  
  ----- ------------  ---------------      ----- ------------  ---------------
    21      6.877315  1 C  dyz               37     -2.705850  3 H  py         
    45      2.705850  4 H  py                19      1.342921  1 C  dxz        
    99      1.250991  6 Cl dyz               32      1.170598  3 H  s          
    40     -1.170598  4 H  s                 30     -0.837477  2 H  pz         
    97      0.777852  6 Cl dxz               38     -0.505352  3 H  pz         

 Vector   51  Occ=0.000000D+00  E= 6.847046D-01  Symmetry=a'
              MO Center=  2.8D-01,  7.7D-01,  1.6D-12, r^2= 6.0D+00
   Bfn.  Coefficient  Atom+Function         Bfn.  Coefficient  Atom+Function  
  ----- ------------  ---------------      ----- ------------  ---------------
     3     81.139981  1 C  s                 32    -38.469028  3 H  s          
    40    -38.469028  4 H  s                 22     21.304594  1 C  dzz        
     4    -18.244020  1 C  s                 24    -16.715569  2 H  s          
    17      8.737115  1 C  dxx               38      6.904723  3 H  pz         
    46     -6.904723  4 H  pz                20      6.227340  1 C  dyy        

 Vector   52  Occ=0.000000D+00  E= 8.069732D-01  Symmetry=a'
              MO Center= -3.2D-02,  1.4D+00, -4.3D-14, r^2= 7.0D+00
   Bfn.  Coefficient  Atom+Function         Bfn.  Coefficient  Atom+Function  
  ----- ------------  ---------------      ----- ------------  ---------------
     3     21.136363  1 C  s                 32    -11.111362  3 H  s          
    40    -11.111362  4 H  s                 24     -6.067926  2 H  s          
    22      5.457285  1 C  dzz                4     -4.678239  1 C  s          
    50      4.685234  5 F  s                 20     -4.329850  1 C  dyy        
    75      3.236481  6 Cl s                 17      2.795397  1 C  dxx        

 Vector   53  Occ=0.000000D+00  E= 8.706516D-01  Symmetry=a'
              MO Center= -4.7D-02,  2.3D+00,  3.6D-13, r^2= 5.7D+00
   Bfn.  Coefficient  Atom+Function         Bfn.  Coefficient  Atom+Function  
  ----- ------------  ---------------      ----- ------------  ---------------
     3     58.415418  1 C  s                 32    -24.952622  3 H  s          
    40    -24.952622  4 H  s                  4    -18.539308  1 C  s          
    24    -13.996035  2 H  s                 22     13.089497  1 C  dzz        
    50     10.362933  5 F  s                 17      6.822008  1 C  dxx        
    38      5.150062  3 H  pz                46     -5.150062  4 H  pz         

 Vector   54  Occ=0.000000D+00  E= 8.768844D-01  Symmetry=a"
              MO Center= -2.2D-01,  2.1D+00, -8.1D-15, r^2= 3.9D+00
   Bfn.  Coefficient  Atom+Function         Bfn.  Coefficient  Atom+Function  
  ----- ------------  ---------------      ----- ------------  ---------------
    21      3.275626  1 C  dyz               37     -1.878434  3 H  py         
    45      1.878434  4 H  py                68     -1.849117  5 F  dxz        
    32      1.143682  3 H  s                 40     -1.143682  4 H  s          
    19      0.680748  1 C  dxz               10     -0.673161  1 C  pz         
    38     -0.304330  3 H  pz                46     -0.304330  4 H  pz         

 Vector   55  Occ=0.000000D+00  E= 8.976752D-01  Symmetry=a'
              MO Center=  2.2D-01,  2.1D+00, -1.2D-15, r^2= 4.1D+00
   Bfn.  Coefficient  Atom+Function         Bfn.  Coefficient  Atom+Function  
  ----- ------------  ---------------      ----- ------------  ---------------
    18      2.120882  1 C  dxy               29     -1.796811  2 H  py         
    66      1.039794  5 F  dxx               24      0.999319  2 H  s          
    37      0.985563  3 H  py                45      0.985563  4 H  py         
    71     -0.816654  5 F  dzz               50     -0.728725  5 F  s          
     8     -0.405408  1 C  px                28     -0.382438  2 H  px         

 Vector   56  Occ=0.000000D+00  E= 9.616764D-01  Symmetry=a"
              MO Center= -7.4D-02,  1.6D+00, -3.3D-15, r^2= 5.7D+00
   Bfn.  Coefficient  Atom+Function         Bfn.  Coefficient  Atom+Function  
  ----- ------------  ---------------      ----- ------------  ---------------
    19      2.417118  1 C  dxz               21      2.050247  1 C  dyz        
    70      2.056877  5 F  dyz               10      1.259315  1 C  pz         
    99      0.842959  6 Cl dyz               36     -0.792707  3 H  px         
    44      0.792707  4 H  px                59     -0.750114  5 F  pz         
    30     -0.718239  2 H  pz                88      0.496803  6 Cl pz         

 Vector   57  Occ=0.000000D+00  E= 9.725136D-01  Symmetry=a'
              MO Center=  4.7D-03,  1.7D+00, -1.2D-14, r^2= 5.8D+00
   Bfn.  Coefficient  Atom+Function         Bfn.  Coefficient  Atom+Function  
  ----- ------------  ---------------      ----- ------------  ---------------
    32      3.730752  3 H  s                 40      3.730752  4 H  s          
     4     -3.103670  1 C  s                 50      2.529205  5 F  s          
    22     -2.372076  1 C  dzz               24     -2.314440  2 H  s          
    18     -2.140526  1 C  dxy               67     -2.097185  5 F  dxy        
     3     -1.790127  1 C  s                 17      1.469713  1 C  dxx        

 Vector   58  Occ=0.000000D+00  E= 9.770906D-01  Symmetry=a'
              MO Center= -9.6D-04,  1.1D+00, -9.0D-15, r^2= 6.8D+00
   Bfn.  Coefficient  Atom+Function         Bfn.  Coefficient  Atom+Function  
  ----- ------------  ---------------      ----- ------------  ---------------
    50      5.952260  5 F  s                  4     -4.279368  1 C  s          
     9     -2.995836  1 C  py                 3     -2.559160  1 C  s          
    24      2.189003  2 H  s                 58     -2.044368  5 F  py         
    71     -1.622280  5 F  dzz               66     -1.462200  5 F  dxx        
    76      1.206800  6 Cl s                 49     -1.186266  5 F  s          

 Vector   59  Occ=0.000000D+00  E= 1.058604D+00  Symmetry=a"
              MO Center= -1.2D-01,  9.7D-01, -1.0D-13, r^2= 4.4D+00
   Bfn.  Coefficient  Atom+Function         Bfn.  Coefficient  Atom+Function  
  ----- ------------  ---------------      ----- ------------  ---------------
    32      9.073835  3 H  s                 40     -9.073835  4 H  s          
    10     -6.430728  1 C  pz                38     -2.850779  3 H  pz         
    46     -2.850779  4 H  pz                19      1.294992  1 C  dxz        
    70      1.159179  5 F  dyz               36      0.985805  3 H  px         
    44     -0.985805  4 H  px                 7      0.873382  1 C  pz         

 Vector   60  Occ=0.000000D+00  E= 1.074215D+00  Symmetry=a'
              MO Center=  5.6D-02,  1.8D-01,  7.5D-15, r^2= 4.0D+00
   Bfn.  Coefficient  Atom+Function         Bfn.  Coefficient  Atom+Function  
  ----- ------------  ---------------      ----- ------------  ---------------
     3     18.863183  1 C  s                 24    -16.535517  2 H  s          
     8      6.644566  1 C  px                28      4.827519  2 H  px         
    17      3.660392  1 C  dxx                4     -2.950721  1 C  s          
    32     -1.308007  3 H  s                 40     -1.308007  4 H  s          
    20      1.259964  1 C  dyy                5     -0.916367  1 C  px         

 Vector   61  Occ=0.000000D+00  E= 1.105327D+00  Symmetry=a'
              MO Center= -2.5D-01,  2.4D-01,  1.5D-13, r^2= 5.4D+00
   Bfn.  Coefficient  Atom+Function         Bfn.  Coefficient  Atom+Function  
  ----- ------------  ---------------      ----- ------------  ---------------
     3     34.574238  1 C  s                 32    -17.136235  3 H  s          
    40    -17.136235  4 H  s                 24     -6.304038  2 H  s          
    22      4.867950  1 C  dzz               50     -4.697195  5 F  s          
    38      3.967217  3 H  pz                46     -3.967217  4 H  pz         
     4      3.596304  1 C  s                 76     -2.401586  6 Cl s          

 Vector   62  Occ=0.000000D+00  E= 1.136019D+00  Symmetry=a'
              MO Center=  1.6D-01,  2.0D-01,  2.2D-14, r^2= 5.8D+00
   Bfn.  Coefficient  Atom+Function         Bfn.  Coefficient  Atom+Function  
  ----- ------------  ---------------      ----- ------------  ---------------
     3     12.664205  1 C  s                 32     -7.023094  3 H  s          
    40     -7.023094  4 H  s                 22      4.825565  1 C  dzz        
    24     -3.685440  2 H  s                  4      3.018600  1 C  s          
    50     -1.950040  5 F  s                 28      1.630600  2 H  px         
    36     -1.476503  3 H  px                44     -1.476503  4 H  px         

 Vector   63  Occ=0.000000D+00  E= 1.177322D+00  Symmetry=a"
              MO Center= -1.7D-02, -1.6D+00, -5.5D-15, r^2= 1.8D+00
   Bfn.  Coefficient  Atom+Function         Bfn.  Coefficient  Atom+Function  
  ----- ------------  ---------------      ----- ------------  ---------------
    91      1.790983  6 Cl dxz               32      1.749595  3 H  s          
    40     -1.749595  4 H  s                 10     -1.589849  1 C  pz         
    97     -1.041091  6 Cl dxz               21     -0.670733  1 C  dyz        
    38     -0.571289  3 H  pz                46     -0.571289  4 H  pz         
    19      0.480939  1 C  dxz               37      0.444995  3 H  py         

 Vector   64  Occ=0.000000D+00  E= 1.189733D+00  Symmetry=a'
              MO Center=  1.3D-01, -1.1D+00,  9.0D-15, r^2= 3.3D+00
   Bfn.  Coefficient  Atom+Function         Bfn.  Coefficient  Atom+Function  
  ----- ------------  ---------------      ----- ------------  ---------------
     3     10.070760  1 C  s                 24     -6.171964  2 H  s          
    32     -3.305864  3 H  s                 40     -3.305864  4 H  s          
    22      2.293093  1 C  dzz               28      2.035213  2 H  px         
     8      1.938541  1 C  px                94     -0.756224  6 Cl dzz        
    89      0.722917  6 Cl dxx               50      0.703735  5 F  s          

 Vector   65  Occ=0.000000D+00  E= 1.192637D+00  Symmetry=a"
              MO Center=  7.7D-03, -1.1D+00,  6.8D-14, r^2= 3.9D+00
   Bfn.  Coefficient  Atom+Function         Bfn.  Coefficient  Atom+Function  
  ----- ------------  ---------------      ----- ------------  ---------------
    19      3.856910  1 C  dxz               32      2.674077  3 H  s          
    40     -2.674077  4 H  s                 10     -2.041625  1 C  pz         
    93     -1.614431  6 Cl dyz               21     -1.517848  1 C  dyz        
    30     -1.284829  2 H  pz                99      1.267498  6 Cl dyz        
    38     -0.955065  3 H  pz                46     -0.955065  4 H  pz         

 Vector   66  Occ=0.000000D+00  E= 1.222802D+00  Symmetry=a'
              MO Center= -4.9D-02,  5.7D-01, -5.7D-14, r^2= 5.0D+00
   Bfn.  Coefficient  Atom+Function         Bfn.  Coefficient  Atom+Function  
  ----- ------------  ---------------      ----- ------------  ---------------
     3     28.849451  1 C  s                 32    -12.108990  3 H  s          
    40    -12.108990  4 H  s                 24     -8.522660  2 H  s          
    50      4.711746  5 F  s                 22      3.400598  1 C  dzz        
    38      3.093385  3 H  pz                46     -3.093385  4 H  pz         
     4     -2.845300  1 C  s                 28      2.249790  2 H  px         

 Vector   67  Occ=0.000000D+00  E= 1.252572D+00  Symmetry=a'
              MO Center= -1.7D-01, -1.1D+00,  2.2D-15, r^2= 4.0D+00
   Bfn.  Coefficient  Atom+Function         Bfn.  Coefficient  Atom+Function  
  ----- ------------  ---------------      ----- ------------  ---------------
    24      3.674720  2 H  s                 76      3.578478  6 Cl s          
    75      2.394228  6 Cl s                 74     -2.020947  6 Cl s          
    22      1.970878  1 C  dzz               95     -1.666548  6 Cl dxx        
     8     -1.618398  1 C  px                32     -1.582594  3 H  s          
    40     -1.582594  4 H  s                100     -1.485322  6 Cl dzz        

 Vector   68  Occ=0.000000D+00  E= 1.263698D+00  Symmetry=a'
              MO Center=  9.5D-02, -6.0D-01,  1.8D-14, r^2= 4.7D+00
   Bfn.  Coefficient  Atom+Function         Bfn.  Coefficient  Atom+Function  
  ----- ------------  ---------------      ----- ------------  ---------------
     3     10.470799  1 C  s                 32     -7.933040  3 H  s          
    40     -7.933040  4 H  s                  4      4.808951  1 C  s          
    76     -3.871194  6 Cl s                 22      3.043467  1 C  dzz        
     8     -1.763194  1 C  px                74      1.693853  6 Cl s          
    17     -1.611528  1 C  dxx               75     -1.457921  6 Cl s          

 Vector   69  Occ=0.000000D+00  E= 1.340895D+00  Symmetry=a'
              MO Center=  1.1D-01, -6.1D-01,  3.1D-13, r^2= 4.9D+00
   Bfn.  Coefficient  Atom+Function         Bfn.  Coefficient  Atom+Function  
  ----- ------------  ---------------      ----- ------------  ---------------
     3     23.422571  1 C  s                 32    -11.735421  3 H  s          
    40    -11.735421  4 H  s                  4     -6.809435  1 C  s          
    22      5.132710  1 C  dzz               20      4.675388  1 C  dyy        
    24     -4.255397  2 H  s                 17      3.502981  1 C  dxx        
    38      2.838987  3 H  pz                46     -2.838987  4 H  pz         

 Vector   70  Occ=0.000000D+00  E= 1.347331D+00  Symmetry=a"
              MO Center= -8.8D-03, -9.3D-01, -2.3D-13, r^2= 4.3D+00
   Bfn.  Coefficient  Atom+Function         Bfn.  Coefficient  Atom+Function  
  ----- ------------  ---------------      ----- ------------  ---------------
    32      6.185355  3 H  s                 40     -6.185355  4 H  s          
    10     -3.913108  1 C  pz                19      3.318913  1 C  dxz        
    38     -2.013783  3 H  pz                46     -2.013783  4 H  pz         
    21     -1.674300  1 C  dyz               85     -1.630667  6 Cl pz         
    82      1.258531  6 Cl pz                30     -1.183891  2 H  pz         

 Vector   71  Occ=0.000000D+00  E= 1.371293D+00  Symmetry=a'
              MO Center= -9.3D-02, -8.9D-01,  5.1D-14, r^2= 4.2D+00
   Bfn.  Coefficient  Atom+Function         Bfn.  Coefficient  Atom+Function  
  ----- ------------  ---------------      ----- ------------  ---------------
     3     32.534866  1 C  s                 32    -13.764942  3 H  s          
    40    -13.764942  4 H  s                 24    -10.670033  2 H  s          
    22      7.059116  1 C  dzz                4     -6.367923  1 C  s          
    20      4.156884  1 C  dyy               28      3.467234  2 H  px         
    17      3.043101  1 C  dxx               75     -3.015177  6 Cl s          

 Vector   72  Occ=0.000000D+00  E= 1.389215D+00  Symmetry=a"
              MO Center= -6.9D-02,  1.2D-01, -1.0D-13, r^2= 3.7D+00
   Bfn.  Coefficient  Atom+Function         Bfn.  Coefficient  Atom+Function  
  ----- ------------  ---------------      ----- ------------  ---------------
    19      8.843008  1 C  dxz               32      7.802079  3 H  s          
    40     -7.802079  4 H  s                 10     -5.484832  1 C  pz         
    30     -2.391012  2 H  pz                38     -2.072294  3 H  pz         
    46     -2.072294  4 H  pz                36     -1.654196  3 H  px         
    44      1.654196  4 H  px                31      0.964858  3 H  s          

 Vector   73  Occ=0.000000D+00  E= 1.469797D+00  Symmetry=a'
              MO Center=  1.7D-01,  6.7D-02, -1.5D-13, r^2= 4.7D+00
   Bfn.  Coefficient  Atom+Function         Bfn.  Coefficient  Atom+Function  
  ----- ------------  ---------------      ----- ------------  ---------------
     3     43.260420  1 C  s                 32    -20.947421  3 H  s          
    40    -20.947421  4 H  s                 22     12.125566  1 C  dzz        
     4    -12.053415  1 C  s                 24    -11.568995  2 H  s          
    20      7.949610  1 C  dyy               17      6.442956  1 C  dxx        
    38      3.963612  3 H  pz                46     -3.963612  4 H  pz         

 Vector   74  Occ=0.000000D+00  E= 1.657326D+00  Symmetry=a"
              MO Center= -1.3D-01,  1.0D+00,  7.7D-14, r^2= 2.4D+00
   Bfn.  Coefficient  Atom+Function         Bfn.  Coefficient  Atom+Function  
  ----- ------------  ---------------      ----- ------------  ---------------
    19      2.633132  1 C  dxz               21      1.516584  1 C  dyz        
    32      0.760367  3 H  s                 40     -0.760367  4 H  s          
    15     -0.727209  1 C  dyz               36     -0.730304  3 H  px         
    44      0.730304  4 H  px                30     -0.667988  2 H  pz         
    56      0.519828  5 F  pz                34     -0.457120  3 H  py         

 Vector   75  Occ=0.000000D+00  E= 1.662213D+00  Symmetry=a'
              MO Center=  3.2D-01,  7.0D-01, -8.1D-14, r^2= 2.1D+00
   Bfn.  Coefficient  Atom+Function         Bfn.  Coefficient  Atom+Function  
  ----- ------------  ---------------      ----- ------------  ---------------
     3      6.974297  1 C  s                 32     -2.894143  3 H  s          
    40     -2.894143  4 H  s                 24     -2.480260  2 H  s          
    22      1.696148  1 C  dzz               18      1.287755  1 C  dxy        
     4     -1.047685  1 C  s                 20      0.900999  1 C  dyy        
    28      0.893006  2 H  px                12     -0.816358  1 C  dxy        

 Vector   76  Occ=0.000000D+00  E= 1.706459D+00  Symmetry=a'
              MO Center= -5.5D-02,  1.9D+00,  2.2D-15, r^2= 2.9D+00
   Bfn.  Coefficient  Atom+Function         Bfn.  Coefficient  Atom+Function  
  ----- ------------  ---------------      ----- ------------  ---------------
     3      9.722688  1 C  s                 32     -3.940882  3 H  s          
    40     -3.940882  4 H  s                 24     -2.960731  2 H  s          
    22      2.282208  1 C  dzz               18     -2.166209  1 C  dxy        
     4     -1.871341  1 C  s                 20      1.745915  1 C  dyy        
    54      1.302660  5 F  px                28      1.246358  2 H  px         

 Vector   77  Occ=0.000000D+00  E= 1.727230D+00  Symmetry=a'
              MO Center= -4.7D-02, -6.9D-01, -1.1D-14, r^2= 3.7D+00
   Bfn.  Coefficient  Atom+Function         Bfn.  Coefficient  Atom+Function  
  ----- ------------  ---------------      ----- ------------  ---------------
     3      5.456976  1 C  s                 32     -3.417704  3 H  s          
    40     -3.417704  4 H  s                 75      3.416662  6 Cl s          
    84      3.079369  6 Cl py                 4     -2.822507  1 C  s          
     9      2.349080  1 C  py                20     -2.319081  1 C  dyy        
    22      2.098873  1 C  dzz               24     -1.943004  2 H  s          

 Vector   78  Occ=0.000000D+00  E= 1.729566D+00  Symmetry=a"
              MO Center=  3.1D-02,  1.2D+00,  7.5D-15, r^2= 3.2D+00
   Bfn.  Coefficient  Atom+Function         Bfn.  Coefficient  Atom+Function  
  ----- ------------  ---------------      ----- ------------  ---------------
    21      3.379948  1 C  dyz               19     -2.181063  1 C  dxz        
    56     -1.044299  5 F  pz                37     -0.836751  3 H  py         
    45      0.836751  4 H  py                30      0.695254  2 H  pz         
    53     -0.632437  5 F  pz                99      0.633480  6 Cl dyz        
    85      0.575676  6 Cl pz                15     -0.560812  1 C  dyz        

 Vector   79  Occ=0.000000D+00  E= 1.781401D+00  Symmetry=a"
              MO Center=  2.4D-02,  8.9D-01, -7.3D-15, r^2= 2.5D+00
   Bfn.  Coefficient  Atom+Function         Bfn.  Coefficient  Atom+Function  
  ----- ------------  ---------------      ----- ------------  ---------------
    19      2.755844  1 C  dxz               21      1.627861  1 C  dyz        
    30     -1.530344  2 H  pz                32      1.140931  3 H  s          
    40     -1.140931  4 H  s                 56     -0.669827  5 F  pz         
    10      0.542046  1 C  pz                33     -0.529983  3 H  px         
    41      0.529983  4 H  px                37     -0.441114  3 H  py         

 Vector   80  Occ=0.000000D+00  E= 1.937506D+00  Symmetry=a'
              MO Center= -2.2D-02,  1.1D+00,  1.6D-13, r^2= 2.9D+00
   Bfn.  Coefficient  Atom+Function         Bfn.  Coefficient  Atom+Function  
  ----- ------------  ---------------      ----- ------------  ---------------
     3     34.568299  1 C  s                 32    -16.996830  3 H  s          
    40    -16.996830  4 H  s                  4    -11.712781  1 C  s          
    24    -10.078264  2 H  s                 22     10.025802  1 C  dzz        
    17      5.858784  1 C  dxx               50      3.670393  5 F  s          
    38      3.187038  3 H  pz                46     -3.187038  4 H  pz         

 Vector   81  Occ=0.000000D+00  E= 2.009699D+00  Symmetry=a"
              MO Center=  3.7D-01,  7.2D-01, -1.7D-13, r^2= 2.1D+00
   Bfn.  Coefficient  Atom+Function         Bfn.  Coefficient  Atom+Function  
  ----- ------------  ---------------      ----- ------------  ---------------
    10      4.896951  1 C  pz                32     -4.789365  3 H  s          
    40      4.789365  4 H  s                 19     -1.770942  1 C  dxz        
    38      1.375399  3 H  pz                46      1.375399  4 H  pz         
    21      1.008521  1 C  dyz               27     -0.840315  2 H  pz         
    31     -0.704689  3 H  s                 39      0.704689  4 H  s          

 Vector   82  Occ=0.000000D+00  E= 2.072034D+00  Symmetry=a'
              MO Center=  1.4D-01,  6.7D-01, -3.9D-15, r^2= 2.2D+00
   Bfn.  Coefficient  Atom+Function         Bfn.  Coefficient  Atom+Function  
  ----- ------------  ---------------      ----- ------------  ---------------
    24      6.497488  2 H  s                  3     -4.460349  1 C  s          
     8     -3.932335  1 C  px                32     -2.065517  3 H  s          
    40     -2.065517  4 H  s                 22      1.813658  1 C  dzz        
    17     -1.755714  1 C  dxx               28     -1.680947  2 H  px         
     4      1.003889  1 C  s                 23      0.856057  2 H  s          

 Vector   83  Occ=0.000000D+00  E= 2.275134D+00  Symmetry=a'
              MO Center= -1.3D-01,  7.8D-01,  2.3D-15, r^2= 3.3D+00
   Bfn.  Coefficient  Atom+Function         Bfn.  Coefficient  Atom+Function  
  ----- ------------  ---------------      ----- ------------  ---------------
     3     10.855387  1 C  s                 32     -5.653012  3 H  s          
    40     -5.653012  4 H  s                 50     -3.092883  5 F  s          
     9     -2.778162  1 C  py                24     -2.510373  2 H  s          
    75     -2.316316  6 Cl s                 22      2.228247  1 C  dzz        
    84     -1.741093  6 Cl py                20      1.706549  1 C  dyy        

 Vector   84  Occ=0.000000D+00  E= 2.301327D+00  Symmetry=a'
              MO Center= -1.8D-01,  1.4D+00, -3.4D-14, r^2= 3.2D+00
   Bfn.  Coefficient  Atom+Function         Bfn.  Coefficient  Atom+Function  
  ----- ------------  ---------------      ----- ------------  ---------------
     3     20.095596  1 C  s                 32     -9.955288  3 H  s          
    40     -9.955288  4 H  s                  4     -5.456449  1 C  s          
    22      4.386558  1 C  dzz               20      3.130138  1 C  dyy        
    24     -2.855449  2 H  s                 50      2.801474  5 F  s          
    17      2.422660  1 C  dxx               38      2.137684  3 H  pz         

[...]
           0.000000000000           0.000000000000         816.967754434243

 Rotational Constants
 --------------------
 A=   4.892569 cm-1  (  7.039157 K)
 B=   0.073687 cm-1  (  0.106017 K)
 C=   0.073687 cm-1  (  0.106017 K)


 Temperature                      =   298.15K
 frequency scaling parameter      =   1.0000

 Zero-Point correction to Energy  =   23.281 kcal/mol  (  0.037100 au)
 Thermal correction to Energy     =   26.126 kcal/mol  (  0.041634 au)
 Thermal correction to Enthalpy   =   26.718 kcal/mol  (  0.042578 au)

 Total Entropy                    =   68.320 cal/mol-K
   - Translational                =   38.594 cal/mol-K (mol. weight =  68.9907)
   - Rotational                   =   23.612 cal/mol-K (symmetry #  =        1)
   - Vibrational                  =    6.114 cal/mol-K

 Cv (constant volume heat capacity) =   12.788 cal/mol-K
   - Translational                  =    2.979 cal/mol-K
   - Rotational                     =    2.979 cal/mol-K
   - Vibrational                    =    6.829 cal/mol-K



          -------------------------------------------------
          NORMAL MODE EIGENVECTORS IN CARTESIAN COORDINATES
          -------------------------------------------------
             (Projected Frequencies expressed in cm-1)

                    1           2           3           4           5           6
 
 P.Frequency     -312.73       -0.00       -0.00       -0.00       -0.00       -0.00
 
           1    -0.00055     0.00161    -0.00046     0.00039     0.10288    -0.00001
           2    -0.25692     0.00039     0.00011     0.00009    -0.00011     0.12039
           3    -0.00000    -0.03934    -0.09870     0.06396    -0.00008     0.00017
           4    -0.03262     0.00161    -0.00045     0.00042     0.11139    -0.00001
           5    -0.01659     0.00041     0.00004    -0.00010    -0.05243     0.12039
           6    -0.00000     0.50435    -0.26177     0.15698    -0.00557    -0.00152
           7     0.01669    -0.46994     0.13361    -0.08700     0.11641     0.00147
           8    -0.01588     0.00637     0.04370     0.04267     0.02589     0.12030
           9    -0.02852    -0.31251    -0.02979     0.00531     0.00269     0.00104
          10     0.01669     0.47317    -0.13451     0.08785     0.10686    -0.00149
          11    -0.01589    -0.00560    -0.04341    -0.04230     0.02614     0.12048
          12     0.02852    -0.31251    -0.02979     0.00531     0.00269     0.00104
          13     0.00010     0.00158    -0.00032     0.00077     0.20916    -0.00001
          14     0.08546     0.00039     0.00011     0.00009    -0.00034     0.12039
          15     0.00000    -0.05093    -0.20161    -0.03528     0.00018     0.00038
          16     0.00011     0.00165    -0.00060     0.00002     0.00091    -0.00001
          17     0.04313     0.00039     0.00011     0.00009     0.00024     0.12039
          18     0.00000    -0.02951     0.00041     0.15893    -0.00033    -0.00003

                    7           8           9          10          11          12
 
 P.Frequency        0.00      206.83      206.94      266.03      926.05      926.20
 
           1     0.06923     0.22074     0.00014     0.00010    -0.05605    -0.00001
           2     0.00010    -0.00036    -0.00000     0.03838     0.00034    -0.00000
           3     0.00003    -0.00014     0.22074     0.00000     0.00001    -0.05608
           4     0.06151     0.23964     0.00015     0.00568     0.06492     0.00001
           5     0.04752    -0.08545    -0.00005     0.00568    -0.78477    -0.00015
           6    -0.00610    -0.00015     0.23528     0.00000    -0.00002     0.10747
           7     0.06657     0.23756    -0.00029    -0.00286     0.09835     0.01526
           8    -0.02348     0.04175    -0.07336     0.00571     0.39166    -0.67913
           9     0.00306    -0.00151     0.23975     0.00492     0.01732     0.07728
          10     0.05601     0.23756     0.00059    -0.00286     0.09836    -0.01523
          11    -0.02367     0.04166     0.07341     0.00571     0.39140     0.67927
          12     0.00306     0.00121     0.23975    -0.00492    -0.01735     0.07727
          13    -0.02709    -0.09011    -0.00006     0.00050    -0.00571    -0.00000
          14     0.00032     0.00018    -0.00000     0.17377    -0.00002     0.00000
          15    -0.00023     0.00006    -0.09011    -0.00000     0.00000    -0.00571
          16     0.16164    -0.04739    -0.00003    -0.00031     0.01480     0.00000
          17    -0.00021     0.00008     0.00000    -0.10807    -0.00006     0.00000
          18     0.00028     0.00003    -0.04739    -0.00000    -0.00000     0.01479

                   13          14          15          16          17          18
 
 P.Frequency     1099.26     1381.52     1381.57     3176.10     3361.08     3361.21
 
           1    -0.00012    -0.00002    -0.08270    -0.00012    -0.09616    -0.00000
           2    -0.03101     0.00000     0.00022    -0.01983     0.00031     0.00000
           3    -0.00000     0.08269    -0.00002     0.00000     0.00000    -0.09616
           4    -0.08189    -0.00002    -0.09568     0.56877     0.75759     0.00001
           5     0.55602     0.00003     0.14270     0.07927     0.11599     0.00000
           6    -0.00000    -0.76002     0.00015     0.00000     0.00000    -0.00940
           7     0.04346    -0.37100     0.54586    -0.28367     0.18237    -0.33185
           8     0.55635    -0.12231    -0.07266     0.08177    -0.05982     0.10356
           9    -0.07253    -0.11785     0.37078     0.49166    -0.33246     0.56583
          10     0.04346     0.37122     0.54571    -0.28367     0.18236     0.33186
          11     0.55635     0.12228    -0.07271     0.08177    -0.05981    -0.10356
          12     0.07253    -0.11800    -0.37074    -0.49166     0.33244     0.56584
          13    -0.00006     0.00000     0.00035    -0.00000     0.00047     0.00000
          14    -0.02529     0.00000     0.00000    -0.00051     0.00000     0.00000
          15     0.00000    -0.00035     0.00000     0.00000    -0.00000     0.00047
          16    -0.00007    -0.00000    -0.00051     0.00000     0.00040     0.00000
          17    -0.02371     0.00000    -0.00000     0.00009    -0.00000     0.00000
          18     0.00000     0.00052    -0.00000    -0.00000    -0.00000     0.00040



 ----------------------------------------------------------------------------
 Normal Eigenvalue ||    Projected Derivative Dipole Moments (debye/angs)
  Mode   [cm**-1]  ||      [d/dqX]             [d/dqY]           [d/dqZ]
 ------ ---------- || ------------------ ------------------ -----------------
    1     -312.730 ||      -0.012              -4.500            -0.000
    2       -0.000 ||      -0.008              -0.002             0.206
    3       -0.000 ||       0.002              -0.001             0.597
    4       -0.000 ||      -0.002              -0.000            -0.188
    5       -0.000 ||      -0.621               0.000             0.000
    6       -0.000 ||       0.000              -0.578            -0.001
    7        0.000 ||      -0.217              -0.000             0.000
    8      206.832 ||       0.667               0.003            -0.000
    9      206.940 ||       0.000              -0.000             0.667
   10      266.033 ||      -0.000              -0.066             0.000
   11      926.050 ||       0.073               0.003            -0.000
   12      926.201 ||       0.000               0.000             0.073
   13     1099.261 ||      -0.003              -0.808            -0.000
   14     1381.516 ||       0.000               0.000            -0.335
   15     1381.572 ||       0.334              -0.002             0.000
   16     3176.100 ||      -0.001              -0.027            -0.000
   17     3361.076 ||       0.034              -0.001            -0.000
   18     3361.206 ||       0.000               0.000             0.034
 ----------------------------------------------------------------------------



  
  
 ----------------------------------------------------------------------------
 Normal Eigenvalue ||           Projected Infra Red Intensities
  Mode   [cm**-1]  || [atomic units] [(debye/angs)**2] [(KM/mol)] [arbitrary]
 ------ ---------- || -------------- ----------------- ---------- -----------
    1     -312.730 ||    0.877905          20.254       855.825     156.871
    2       -0.000 ||    0.001841           0.042         1.794       0.329
    3       -0.000 ||    0.015423           0.356        15.035       2.756
    4       -0.000 ||    0.001528           0.035         1.489       0.273
    5       -0.000 ||    0.016742           0.386        16.321       2.992
    6       -0.000 ||    0.014495           0.334        14.130       2.590
    7        0.000 ||    0.002043           0.047         1.992       0.365
    8      206.832 ||    0.019309           0.445        18.823       3.450
    9      206.940 ||    0.019307           0.445        18.821       3.450
   10      266.033 ||    0.000188           0.004         0.184       0.034
   11      926.050 ||    0.000229           0.005         0.223       0.041
   12      926.201 ||    0.000230           0.005         0.224       0.041
   13     1099.261 ||    0.028273           0.652        27.562       5.052
   14     1381.516 ||    0.004856           0.112         4.734       0.868
   15     1381.572 ||    0.004843           0.112         4.722       0.865
   16     3176.100 ||    0.000032           0.001         0.031       0.006
   17     3361.076 ||    0.000049           0.001         0.048       0.009
   18     3361.206 ||    0.000051           0.001         0.049       0.009
 ----------------------------------------------------------------------------






 ===============================================================================
      Negative Nuclear Hessian Mode    1  Eigenvalue =   -312.73 cm**(-1)
 -------------------------------------------------------------------------------
   Raw step length:  0.149 angstroms ;  The Raw step for this mode is:
    1 C                    6.0000     0.00029102     0.13595881     0.00000003
    2 H                    1.0000     0.01726004     0.00878122     0.00000009
    3 H                    1.0000    -0.00883002     0.00840552     0.01509420
    4 H                    1.0000    -0.00883003     0.00840602    -0.01509406
    5 F                    9.0000    -0.00005298    -0.04522572    -0.00000002
    6 Cl                  17.0000    -0.00005956    -0.02282267    -0.00000001


  Geometry after  100.0% step for mode  1; Step length =  0.149 angstroms 
   Maximum component (any atom: x,y, or z) displacement:  0.257
    1 C                    6.0000     0.04965708     0.55371001     0.00000003
    2 H                    1.0000     1.13470998     0.60036398     0.00000009
    3 H                    1.0000    -0.49273245     0.60495257     0.93955234
    4 H                    1.0000    -0.49273246     0.60495307    -0.93955219
    5 F                    9.0000     0.05412556     2.54199868    -0.00000002
    6 Cl                  17.0000     0.04215132    -1.68648685    -0.00000001


  Geometry after -100.0% step for mode  1; Step length =  0.149 angstroms 
   Maximum component (any atom: x,y, or z) displacement:  0.257
    1 C                    6.0000     0.04907503     0.28179240    -0.00000003
    2 H                    1.0000     1.10018990     0.58280153    -0.00000009
    3 H                    1.0000    -0.47507241     0.58814153     0.90936393
    4 H                    1.0000    -0.47507240     0.58814103    -0.90936407
    5 F                    9.0000     0.05423152     2.63245011     0.00000002
    6 Cl                  17.0000     0.04227043    -1.64084151     0.00000001


  Geometry after   50.0% step for mode  1; Step length =  0.074 angstroms 
   Maximum component (any atom: x,y, or z) displacement:  0.128
    1 C                    6.0000     0.04951157     0.48573061     0.00000002
    2 H                    1.0000     1.12607996     0.59597336     0.00000004
    3 H                    1.0000    -0.48831744     0.60074981     0.93200523
    4 H                    1.0000    -0.48831745     0.60075006    -0.93200516
    5 F                    9.0000     0.05415205     2.56461154    -0.00000001
    6 Cl                  17.0000     0.04218110    -1.67507551    -0.00000000


  Geometry after  -50.0% step for mode  1; Step length =  0.074 angstroms 
   Maximum component (any atom: x,y, or z) displacement:  0.128
    1 C                    6.0000     0.04922055     0.34977181    -0.00000002
    2 H                    1.0000     1.10881992     0.58719214    -0.00000004
    3 H                    1.0000    -0.47948742     0.59234429     0.91691103
    4 H                    1.0000    -0.47948741     0.59234404    -0.91691110
    5 F                    9.0000     0.05420503     2.60983725     0.00000001
    6 Cl                  17.0000     0.04224065    -1.65225285     0.00000000


  Geometry after   77.8% step for mode  1; Step length =  0.116 angstroms 
   Maximum component (any atom: x,y, or z) displacement:  0.200
    1 C                    6.0000     0.04959260     0.52358666     0.00000003
    2 H                    1.0000     1.13088580     0.59841839     0.00000007
    3 H                    1.0000    -0.49077605     0.60309022     0.93620803
    4 H                    1.0000    -0.49077606     0.60309061    -0.93620791
    5 F                    9.0000     0.05413730     2.55201899    -0.00000002
    6 Cl                  17.0000     0.04216452    -1.68143020    -0.00000000


  Geometry after  -77.8% step for mode  1; Step length =  0.116 angstroms 
   Maximum component (any atom: x,y, or z) displacement:  0.200
    1 C                    6.0000     0.04913951     0.31191576    -0.00000003
    2 H                    1.0000     1.10401407     0.58474712    -0.00000007
    3 H                    1.0000    -0.47702881     0.59000388     0.91270823
    4 H                    1.0000    -0.47702880     0.59000349    -0.91270835
    5 F                    9.0000     0.05421978     2.62242980     0.00000002
    6 Cl                  17.0000     0.04225724    -1.64589816     0.00000000


  Geometry after   38.9% step for mode  1; Step length =  0.058 angstroms 
   Maximum component (any atom: x,y, or z) displacement:  0.100
    1 C                    6.0000     0.04947933     0.47066893     0.00000001
    2 H                    1.0000     1.12416787     0.59500057     0.00000003
    3 H                    1.0000    -0.48733924     0.59981863     0.93033308
    4 H                    1.0000    -0.48733925     0.59981883    -0.93033302
    5 F                    9.0000     0.05415792     2.56962170    -0.00000001
    6 Cl                  17.0000     0.04218770    -1.67254719    -0.00000000


  Geometry after  -38.9% step for mode  1; Step length =  0.058 angstroms 
   Maximum component (any atom: x,y, or z) displacement:  0.100
    1 C                    6.0000     0.04925279     0.36483348    -0.00000001
    2 H                    1.0000     1.11073200     0.58816493    -0.00000003
    3 H                    1.0000    -0.48046562     0.59327546     0.91858318
    4 H                    1.0000    -0.48046562     0.59327527    -0.91858324
    5 F                    9.0000     0.05419916     2.60482710     0.00000001
    6 Cl                  17.0000     0.04223406    -1.65478117     0.00000000


 vib:animation  F

 Task  times  cpu:      778.8s     wall:      321.3s
 Summary of allocated global arrays
-----------------------------------
  No active global arrays


MA_summarize_allocated_blocks: starting scan ...
MA_summarize_allocated_blocks: scan completed: 0 heap blocks, 0 stack blocks
MA usage statistics:

	allocation statistics:
					      heap	     stack
					      ----	     -----
	current number of blocks	         0	         0
	maximum number of blocks	        26	        57
	current total bytes		         0	         0
	maximum total bytes		 241369200	  83604040
	maximum total K-bytes		    241370	     83605
	maximum total M-bytes		       242	        84


                                NWChem Input Module
                                -------------------




                                     CITATION
                                     --------
                Please cite the following reference when publishing
                           results obtained with NWChem:

          E. Apra, E. J. Bylaska, W. A. de Jong, N. Govind, K. Kowalski,
       T. P. Straatsma, M. Valiev, H. J. J. van Dam, Y. Alexeev, J. Anchell,
       V. Anisimov, F. W. Aquino, R. Atta-Fynn, J. Autschbach, N. P. Bauman,
     J. C. Becca, D. E. Bernholdt, K. Bhaskaran-Nair, S. Bogatko, P. Borowski,
         J. Boschen, J. Brabec, A. Bruner, E. Cauet, Y. Chen, G. N. Chuev,
      C. J. Cramer, J. Daily, M. J. O. Deegan, T. H. Dunning Jr., M. Dupuis,
   K. G. Dyall, G. I. Fann, S. A. Fischer, A. Fonari, H. Fruchtl, L. Gagliardi,
      J. Garza, N. Gawande, S. Ghosh, K. Glaesemann, A. W. Gotz, J. Hammond,
       V. Helms, E. D. Hermes, K. Hirao, S. Hirata, M. Jacquelin, L. Jensen,
   B. G. Johnson, H. Jonsson, R. A. Kendall, M. Klemm, R. Kobayashi, V. Konkov,
      S. Krishnamoorthy, M. Krishnan, Z. Lin, R. D. Lins, R. J. Littlefield,
      A. J. Logsdail, K. Lopata, W. Ma, A. V. Marenich, J. Martin del Campo,
   D. Mejia-Rodriguez, J. E. Moore, J. M. Mullin, T. Nakajima, D. R. Nascimento,
    J. A. Nichols, P. J. Nichols, J. Nieplocha, A. Otero-de-la-Roza, B. Palmer,
    A. Panyala, T. Pirojsirikul, B. Peng, R. Peverati, J. Pittner, L. Pollack,
   R. M. Richard, P. Sadayappan, G. C. Schatz, W. A. Shelton, D. W. Silverstein,
   D. M. A. Smith, T. A. Soares, D. Song, M. Swart, H. L. Taylor, G. S. Thomas,
            V. Tipparaju, D. G. Truhlar, K. Tsemekhman, T. Van Voorhis,
      A. Vazquez-Mayagoitia, P. Verma, O. Villa, A. Vishnu, K. D. Vogiatzis,
        D. Wang, J. H. Weare, M. J. Williamson, T. L. Windus, K. Wolinski,
        A. T. Wong, Q. Wu, C. Yang, Q. Yu, M. Zacharias, Z. Zhang, Y. Zhao,
                                and R. J. Harrison
                        "NWChem: Past, present, and future
                         J. Chem. Phys. 152, 184102 (2020)
                               doi:10.1063/5.0004997

                                      AUTHORS
                                      -------
  E. Apra, E. J. Bylaska, N. Govind, K. Kowalski, M. Valiev, D. Mejia-Rodriguez,
       A. Kunitsa, N. P. Bauman, A. Panyala, W. A. de Jong, T. P. Straatsma,
   H. J. J. van Dam, D. Wang, T. L. Windus, J. Hammond, J. Autschbach, A. Woods,
    K. Bhaskaran-Nair, J. Brabec, K. Lopata, S. A. Fischer, S. Krishnamoorthy,
     M. Jacquelin, W. Ma, M. Klemm, O. Villa, Y. Chen, V. Anisimov, F. Aquino,
     S. Hirata, M. T. Hackler, E. Hermes, L. Jensen, J. E. Moore, J. C. Becca,
      V. Konjkov, T. Risthaus, M. Malagoli, A. Marenich, A. Otero-de-la-Roza,
        J. Mullin, P. Nichols, R. Peverati, J. Pittner, Y. Zhao, P.-D. Fan,
        A. Fonari, M. J. Williamson, R. J. Harrison, J. R. Rehr, M. Dupuis,
     D. Silverstein, D. M. A. Smith, J. Nieplocha, V. Tipparaju, M. Krishnan,
     B. E. Van Kuiken, A. Vazquez-Mayagoitia, M. Swart, Q. Wu, T. Van Voorhis,
     A. A. Auer, M. Nooijen, L. D. Crosby, E. Brown, G. Cisneros, G. I. Fann,
   H. Fruchtl, J. Garza, K. Hirao, R. A. Kendall, J. A. Nichols, K. Tsemekhman,
    K. Wolinski, J. Anchell, D. E. Bernholdt, P. Borowski, T. Clark, D. Clerc,
   H. Dachsel, M. J. O. Deegan, K. Dyall, D. Elwood, E. Glendening, M. Gutowski,
   A. C. Hess, J. Jaffe, B. G. Johnson, J. Ju, R. Kobayashi, R. Kutteh, Z. Lin,
   R. Littlefield, X. Long, B. Meng, T. Nakajima, S. Niu, L. Pollack, M. Rosing,
   K. Glaesemann, G. Sandrone, M. Stave, H. Taylor, G. Thomas, J. H. van Lenthe,
                               A. T. Wong, Z. Zhang.

 Total times  cpu:     1547.0s     wall:      694.1s
