 argument  1 = /home/sebastian/СH3Cl+F=CH3F+Cl/inputs/acetone_env/TS_via_saddle_freq.nw



============================== echo of input deck ==============================
start Sn2_saddle
title "СH3Cl+F=CH3F+Cl acetone saddle+freq"
memory total 1500 mb
echo

charge -1
geometry units angstrom
  C   0.000   0.000   0.000
  H   0.000   1.080   0.000
  H   1.020  -0.360   0.000
  H  -1.020  -0.360   0.000
  F   0.000   0.000  -2.00
  Cl  0.000   0.000   2.20
end

basis
    * library def2-svpd
end

dft
  xc b3lyp
  mult 1
  grid xfine
  iterations 200
end

cosmo
 dielec 25.2
 lineq  0
end

task dft saddle
task dft freq

#nwchem ~/СH3Cl+F=CH3F+Cl/inputs/acetone_env/TS_via_saddle_freq.nw > ~/СH3Cl+F=CH3F+Cl/outputs/acetone_env/TS_via_saddle_freq.out
#grep -i "Total DFT energy" "$HOME/СH3Cl+F=CH3F+Cl/outputs/acetone_env/TS_via_saddle_freq.out"
================================================================================


                                         
                                         


             Northwest Computational Chemistry Package (NWChem) 7.2.2
             --------------------------------------------------------


                    Environmental Molecular Sciences Laboratory
                       Pacific Northwest National Laboratory
                                Richland, WA 99352

                              Copyright (c) 1994-2022
                       Pacific Northwest National Laboratory
                            Battelle Memorial Institute

             NWChem is an open-source computational chemistry package
                        distributed under the terms of the
                      Educational Community License (ECL) 2.0
             A copy of the license is included with this distribution
                              in the LICENSE.TXT file

                                  ACKNOWLEDGMENT
                                  --------------

            This software and its documentation were developed at the
            EMSL at Pacific Northwest National Laboratory, a multiprogram
            national laboratory, operated for the U.S. Department of Energy
            by Battelle under Contract Number DE-AC05-76RL01830. Support
            for this work was provided by the Department of Energy Office
            of Biological and Environmental Research, Office of Basic
            Energy Sciences, and the Office of Advanced Scientific Computing.


           Job information
           ---------------

    hostname        = DESKTOP-B8GSJV0
    program         = nwchem
    date            = Sat Sep 13 18:10:52 2025

    compiled        = Mon_Apr_01_11:12:32_2024
    source          = /build/nwchem-qbYJLs/nwchem-7.2.2/build-openmpi
    nwchem branch   = 7.2.2
    nwchem revision = N/A
    ga revision     = N/A
    use scalapack   = T
    input           = /home/sebastian/СH3Cl+F=CH3F+Cl/inputs/acetone_env/TS_via_saddle_freq.nw
    prefix          = Sn2_saddle.
    data base       = ./Sn2_saddle.db
    status          = startup
    nproc           =        1
    time left       =     -1s



           Memory information
           ------------------

    heap     =   49151998 doubles =    375.0 Mbytes
    stack    =   49151995 doubles =    375.0 Mbytes
    global   =   98304000 doubles =    750.0 Mbytes (distinct from heap & stack)
    total    =  196607993 doubles =   1500.0 Mbytes
    verify   = yes
    hardfail = no 


           Directory information
           ---------------------

  0 permanent = .
  0 scratch   = .




                                NWChem Input Module
                                -------------------


                       СH3Cl+F=CH3F+Cl acetone saddle+freq
                       ------------------------------------

 Scaling coordinates for geometry "geometry" by  1.889725989
 (inverse scale =  0.529177249)

 CS  symmetry detected

          ------
          auto-z
          ------
  autoz: The atoms group into disjoint clusters
 cluster   1:    1    2    3    4
 cluster   2:    5
 cluster   3:    6
 Connecting clusters   1   2 via atoms    1    5 r = 2.00
 Connecting clusters   1   3 via atoms    1    6 r = 2.20
 Connecting clusters   2   3 via atoms    5    6 r = 4.20
  autoz: regenerating connections with new bonds
  Looking for out-of-plane bends
  no constraints, skipping    0.0000000000000000     
  no constraints, skipping    0.0000000000000000     


                             Geometry "geometry" -> ""
                             -------------------------

 Output coordinates in angstroms (scale by  1.889725989 to convert to a.u.)

  No.       Tag          Charge          X              Y              Z
 ---- ---------------- ---------- -------------- -------------- --------------
    1 C                    6.0000    -0.01079732     0.55427598     0.00000000
    2 H                    1.0000     1.06920222     0.55527283     0.00000000
    3 H                    1.0000    -0.37079716     0.55394370     1.02000000
    4 H                    1.0000    -0.37079716     0.55394370    -1.02000000
    5 F                    9.0000    -0.01264332     2.55427513     0.00000000
    6 Cl                  17.0000    -0.00876671    -1.64572308     0.00000000

      Atomic Mass 
      ----------- 

      C                 12.000000
      H                  1.007825
      F                 18.998400
      Cl                34.968850


 Effective nuclear repulsion energy (a.u.)      85.0635005391

            Nuclear Dipole moment (a.u.) 
            ----------------------------
        X                 Y               Z
 ---------------- ---------------- ----------------
     0.0000000000     0.0000000000     0.0000000000

      Symmetry information
      --------------------

 Group name             Cs        
 Group number              2
 Group order               2
 No. of unique centers     5

      Symmetry unique atoms

     1    2    3    5    6



                                Z-matrix (autoz)
                                -------- 

 Units are Angstrom for bonds and degrees for angles

      Type          Name      I     J     K     L     M      Value
      ----------- --------  ----- ----- ----- ----- ----- ----------
    1 Stretch                  1     5                       2.00000
    2 Stretch                  1     6                       2.20000
    3 Stretch                  1     2                       1.08000
    4 Stretch                  1     3                       1.08167
    5 Stretch                  1     4                       1.08167
    6 Stretch                  5     6                       4.20000
    7 Bend                     2     1     5                90.00000
    8 Bend                     2     1     6                90.00000
    9 Bend                     2     1     3               109.44003
   10 Bend                     2     1     4               109.44003
   11 Bend                     3     1     5                90.00000
   12 Bend                     3     1     6                90.00000
   13 Bend                     3     1     4               141.11993
   14 Bend                     4     1     5                90.00000
   15 Bend                     4     1     6                90.00000
   16 Torsion                  1     2     5     6           0.00000
   17 Torsion                  1     2     6     5           0.00000
   18 Torsion                  1     3     5     6          -0.00000
   19 Torsion                  1     3     6     5           0.00000
   20 Torsion                  1     4     5     6           0.00000
   21 Torsion                  1     4     6     5          -0.00000


            XYZ format geometry
            -------------------
     6
 geometry
 C                    -0.01079732     0.55427598     0.00000000
 H                     1.06920222     0.55527283     0.00000000
 H                    -0.37079716     0.55394370     1.02000000
 H                    -0.37079716     0.55394370    -1.02000000
 F                    -0.01264332     2.55427513     0.00000000
 Cl                   -0.00876671    -1.64572308     0.00000000

 ==============================================================================
                                internuclear distances
 ------------------------------------------------------------------------------
       center one      |      center two      | atomic units |  angstroms
 ------------------------------------------------------------------------------
    2 H                |   1 C                |     2.04090  |     1.08000
    3 H                |   1 C                |     2.04405  |     1.08167
    4 H                |   1 C                |     2.04405  |     1.08167
 ------------------------------------------------------------------------------
                         number of included internuclear distances:          3
 ==============================================================================



 ==============================================================================
                                 internuclear angles
 ------------------------------------------------------------------------------
        center 1       |       center 2       |       center 3       |  degrees
 ------------------------------------------------------------------------------
    2 H                |   1 C                |   3 H                |   109.44
    2 H                |   1 C                |   4 H                |   109.44
    3 H                |   1 C                |   4 H                |   141.12
 ------------------------------------------------------------------------------
                            number of included internuclear angles:          3
 ==============================================================================





 Summary of "ao basis" -> "" (cartesian)
 ------------------------------------------------------------------------------
       Tag                 Description            Shells   Functions and Types
 ---------------- ------------------------------  ------  ---------------------
 *                         def2-svpd                  on all atoms 




                           NWChem Geometry Optimization
                           ----------------------------




                       СH3Cl+F=CH3F+Cl acetone saddle+freq


  no constraints, skipping    0.0000000000000000     
 maximum gradient threshold         (gmax) =   0.000450
 rms gradient threshold             (grms) =   0.000300
 maximum cartesian step threshold   (xmax) =   0.001800
 rms cartesian step threshold       (xrms) =   0.001200
 fixed trust radius                (trust) =   0.100000
 maximum step size to saddle      (sadstp) =   0.100000
 energy precision                  (eprec) =   5.0D-06
 maximum number of steps          (nptopt) =   40
 initial hessian option           (inhess) =    0
 line search option               (linopt) =    0
 hessian update option            (modupd) =    2
 saddle point option              (modsad) =    1
 initial eigen-mode to follow     (moddir) =    0
 initial variable to follow       (vardir) =    0
 follow first negative mode     (firstneg) =    T
 apply conjugacy                    (opcg) =    F
 source of zmatrix                         =   autoz   


          -----------------------
          Transition State Search
          -----------------------


 Names of Z-matrix variables 
    1              2              3              4              5         
    6              7              8              9             10         
   11             12             13             14             15         
   16             17             18             19             20         
   21         

 Variables with the same non-blank name are constrained to be equal


 Using old Hessian from previous optimization

          --------
          Step   0
          --------


                         Geometry "geometry" -> "geometry"
                         ---------------------------------

 Output coordinates in angstroms (scale by  1.889725989 to convert to a.u.)

  No.       Tag          Charge          X              Y              Z
 ---- ---------------- ---------- -------------- -------------- --------------
    1 C                    6.0000    -0.01079732     0.55427598     0.00000000
    2 H                    1.0000     1.06920222     0.55527283     0.00000000
    3 H                    1.0000    -0.37079716     0.55394370     1.02000000
    4 H                    1.0000    -0.37079716     0.55394370    -1.02000000
    5 F                    9.0000    -0.01264332     2.55427513     0.00000000
    6 Cl                  17.0000    -0.00876671    -1.64572308     0.00000000

      Atomic Mass 
      ----------- 

      C                 12.000000
      H                  1.007825
      F                 18.998400
      Cl                34.968850


 Effective nuclear repulsion energy (a.u.)      85.0635005391

            Nuclear Dipole moment (a.u.) 
            ----------------------------
        X                 Y               Z
 ---------------- ---------------- ----------------
     0.0000000000     0.0000000000     0.0000000000

      Symmetry information
      --------------------

 Group name             Cs        
 Group number              2
 Group order               2
 No. of unique centers     5

      Symmetry unique atoms

     1    2    3    5    6


                                 NWChem DFT Module
                                 -----------------


                       СH3Cl+F=CH3F+Cl acetone saddle+freq


                      Basis "ao basis" -> "ao basis" (cartesian)
                      -----
  C (Carbon)
  ----------
            Exponent  Coefficients 
       -------------- ---------------------------------------------------------
  1 S  1.23840169E+03  0.005457
  1 S  1.86290050E+02  0.040638
  1 S  4.22511763E+01  0.180256
  1 S  1.16765579E+01  0.463151
  1 S  3.59305065E+00  0.440872

  2 S  4.02451474E-01  1.000000

  3 S  1.30901827E-01  1.000000

  4 S  6.70535403E-02  1.000000

  5 P  9.46809706E+00  0.038388
  5 P  2.01035451E+00  0.211170
  5 P  5.47710047E-01  0.513282

  6 P  1.52686138E-01  1.000000

  7 D  8.00000000E-01  1.000000

  8 D  1.17131851E-01  1.000000

  H (Hydrogen)
  ------------
            Exponent  Coefficients 
       -------------- ---------------------------------------------------------
  1 S  1.30107010E+01  0.019682
  1 S  1.96225720E+00  0.137965
  1 S  4.44537960E-01  0.478319

  2 S  1.21949620E-01  1.000000

  3 P  8.00000000E-01  1.000000

  4 P  1.17040991E-01  1.000000

  F (Fluorine)
  ------------
            Exponent  Coefficients 
       -------------- ---------------------------------------------------------
  1 S  2.89483260E+03 -0.005341
  1 S  4.35419391E+02 -0.039904
  1 S  9.88433289E+01 -0.179128
  1 S  2.74851980E+01 -0.467581
  1 S  8.54054982E+00 -0.446531

  2 S  1.06545780E+00  1.000000

  3 S  3.32473467E-01  1.000000

  4 S  9.80977523E-02  1.000000

  5 P  2.26966339E+01 -0.045213
  5 P  4.98723393E+00 -0.237543
  5 P  1.34916140E+00 -0.512874

  6 P  3.48298820E-01  1.000000

  7 P  8.33721483E-02  1.000000

  8 D  1.40000000E+00  1.000000

  9 D  2.23013619E-01  1.000000

  Cl (Chlorine)
  -------------
            Exponent  Coefficients 
       -------------- ---------------------------------------------------------
  1 S  1.04498276E+04  0.001971
  1 S  1.57173652E+03  0.014755
  1 S  3.57120655E+02  0.066679
  1 S  1.00251859E+02  0.172289
  1 S  3.08127276E+01  0.158838

  2 S  5.19237894E+01 -0.100093
  2 S  5.70457610E+00  0.608418
  2 S  2.35083768E+00  0.543522

  3 S  4.46051247E-01  1.000000

  4 S  1.68488562E-01  1.000000

  5 S  5.53442294E-02  1.000000

  6 P  3.07667906E+02 -0.008780
  6 P  7.21020155E+01 -0.063563
  6 P  2.25326803E+01 -0.240164
  6 P  7.89917654E+00 -0.477989
  6 P  2.87672683E+00 -0.385159

  7 P  7.74593640E-01  1.000000

  8 P  2.10376997E-01  1.000000

  9 P  5.00462711E-02  1.000000

 10 D  6.50000000E-01  1.000000

 11 D  1.22848034E-01  1.000000



 Summary of "ao basis" -> "ao basis" (cartesian)
 ------------------------------------------------------------------------------
       Tag                 Description            Shells   Functions and Types
 ---------------- ------------------------------  ------  ---------------------
 C                         def2-svpd                 8       22   4s2p2d
 H                         def2-svpd                 4        8   2s2p
 F                         def2-svpd                 9       25   4s3p2d
 Cl                        def2-svpd                11       29   5s4p2d




 Summary of "ao basis" -> "ao basis" (cartesian)
 ------------------------------------------------------------------------------
       Tag                 Description            Shells   Functions and Types
 ---------------- ------------------------------  ------  ---------------------
 C                         def2-svpd                 8       22   4s2p2d
 H                         def2-svpd                 4        8   2s2p
 F                         def2-svpd                 9       25   4s3p2d
 Cl                        def2-svpd                11       29   5s4p2d


      Symmetry analysis of basis
      --------------------------

        a'         69
        a"         31

 in cosmo_initialize ...

 solvent parameters
 solvname_short: unkn    
 solvname_long:  unknown                            
 dielec:       25.2000

          ---------------
          -cosmo- solvent
          ---------------
 Cosmo: York-Karplus, doi: 10.1021/jp992097l
 dielectric constant -eps-     =  25.20
 screen = (eps-1)/(eps    )    =   0.96032
 surface charge correction     = lagrangian

 solvent accessible surface
 --------------------------

 ---------- ATOMIC COORDINATES (A.U.) ------------ VDWR(ANG.) --
     1   -0.02040397    1.04742973    0.00000000     2.000
     2    2.02049923    1.04931349    0.00000000     1.300
     3   -0.70070503    1.04680181    1.92752051     1.300
     4   -0.70070503    1.04680181   -1.92752051     1.300
     5   -0.02389241    4.82688010    0.00000000     1.720
     6   -0.01656669   -3.10996567    0.00000000     2.050
 number of segments per atom =         32
 number of   points per atom =         32
 atom (   nspa,  nppa )
 ----------------------
    1 (     16,     0 )       0
    2 (     14,     0 )       0
    3 (     13,     0 )       0
    4 (     13,     0 )       0
    5 (     24,     0 )       0
    6 (     28,     0 )       0
 number of -cosmo- surface points =      108
 molecular surface =    103.599 angstrom**2
 molecular volume  =     63.197 angstrom**3
 G(cav/disp)       =      1.378 kcal/mol
 -lineq- algorithm             =   0
 -bem- low  level              =   2
 -bem- from -octahedral-
 gaussian surface charge width =   4.50000
 degree of switching           =   1.00000
 switching function tolerance  =   0.00010
 atomic radii = 
 --------------
    1  6.000  2.000
    2  1.000  1.300
    3  1.000  1.300
    4  1.000  1.300
    5  9.000  1.720
    6 17.000  2.050
 ...... end of -cosmo- initialization ......


  Caching 1-el integrals 

            General Information
            -------------------
          SCF calculation type: DFT
          Wavefunction type:  closed shell.
          No. of atoms     :     6
          No. of electrons :    36
           Alpha electrons :    18
            Beta electrons :    18
          Charge           :    -1
          Spin multiplicity:     1
          Use of symmetry is: on ; symmetry adaption is: on 
          Maximum number of iterations: 200
          AO basis - number of functions:   100
                     number of shells:    40
          Convergence on energy requested:  1.00D-06
          Convergence on density requested:  1.00D-05
          Convergence on gradient requested:  5.00D-04

              XC Information
              --------------
                         B3LYP Method XC Potential
                     Hartree-Fock (Exact) Exchange  0.200          
                        Slater Exchange Functional  0.800 local    
                    Becke 1988 Exchange Functional  0.720 non-local
              Lee-Yang-Parr Correlation Functional  0.810          
                  VWN I RPA Correlation Functional  0.190 local    

             Grid Information
             ----------------
          Grid used for XC integration:  xfine     
          Radial quadrature: Mura-Knowles        
          Angular quadrature: Lebedev. 
          Tag              B.-S. Rad. Rad. Pts. Rad. Cut. Ang. Pts.
          ---              ---------- --------- --------- ---------
          C                   0.70      100          11.0      1454
          H                   0.35      100          11.0      1202
          F                   0.50      100          14.0      1454
          Cl                  1.00      125          13.0      1454
          Grid pruning is: on 
          Number of quadrature shells:   525
          Spatial weights used:  Erf1

          Convergence Information
          -----------------------
          Convergence aids based upon iterative change in 
          total energy or number of iterations. 
          Levelshifting, if invoked, occurs when the 
          HOMO/LUMO gap drops below (HL_TOL):  1.00D-02
          DIIS, if invoked, will attempt to extrapolate 
          using up to (NFOCK): 10 stored Fock matrices.

                    Damping( 0%)  Levelshifting(0.5)       DIIS
                  --------------- ------------------- ---------------
          dE  on:    start            ASAP                start   
          dE off:    2 iters        200 iters           200 iters 


      Screening Tolerance Information
      -------------------------------
          Density screening/tol_rho:  1.00D-10
          AO Gaussian exp screening on grid/accAOfunc:  14
          CD Gaussian exp screening on grid/accCDfunc:  20
          XC Gaussian exp screening on grid/accXCfunc:  20
          Schwarz screening/accCoul:  1.00D-08


      Superposition of Atomic Density Guess
      -------------------------------------

 Sum of atomic energies:        -597.74972035

 Renormalizing density from      35.00 to     36

      Non-variational initial energy
      ------------------------------

 Total energy =    -608.242135
 1-e energy   =   -1023.103045
 2-e energy   =     329.797409
 HOMO         =      -0.061127
 LUMO         =       0.233070


      Symmetry analysis of molecular orbitals - initial
      -------------------------------------------------

  Numbering of irreducible representations: 

     1 a'          2 a"      

  Orbital symmetries:

     1 a'          2 a'          3 a'          4 a'          5 a'      
     6 a"          7 a'          8 a'          9 a'         10 a'      
    11 a"         12 a'         13 a'         14 a"         15 a'      
    16 a'         17 a"         18 a'         19 a'         20 a'      
    21 a'         22 a"         23 a'         24 a'         25 a'      
    26 a'         27 a"         28 a'      

  WARNING: movecs_in_org=atomic not equal to movecs_in=./Sn2_saddle.movecs
   Time after variat. SCF:      0.9
   Time prior to 1st pass:      0.9

 Integral file          = ./Sn2_saddle.aoints.0
 Record size in doubles =    65536    No. of integs per rec  =    43688
 Max. records in memory =      261    Max. records in file   =  1850076
 No. of bits per label  =        8    No. of bits per value  =       64


 #quartets = 2.251D+05 #integrals = 6.132D+06 #direct =  0.0% #cached =100.0%


 Grid_pts file          = ./Sn2_saddle.gridpts.0
 Record size in doubles =  12289        No. of grid_pts per rec  =   3070
 Max. records in memory =    275        Max. recs in file   =   9866277

 Grid integrated density:      36.000001338356
 Requested integration accuracy:   0.10E-07

           Memory utilization after 1st SCF pass: 
           Heap Space remaining (MW):       28.66            28663342
          Stack Space remaining (MW):       49.15            49151316

   convergence    iter        energy       DeltaE   RMS-Dens  Diis-err    time
 ---------------- ----- ----------------- --------- --------- ---------  ------
     COSMO gas phase
 d= 0,ls=0.0,diis     1   -599.6117639656 -6.85D+02  5.12D-02  1.28D+00    15.2
 Grid integrated density:      36.000001480130
 Requested integration accuracy:   0.10E-07
 d= 0,ls=0.0,diis     2   -599.0660893245  5.46D-01  1.95D-02  6.20D+00    18.0
 Grid integrated density:      36.000001468174
 Requested integration accuracy:   0.10E-07
 d= 0,ls=0.0,diis     3   -599.7304783016 -6.64D-01  5.47D-03  5.06D-01    19.3
 Grid integrated density:      36.000001412531
 Requested integration accuracy:   0.10E-07
 d= 0,ls=0.0,diis     4   -599.7714530119 -4.10D-02  1.95D-03  3.04D-02    20.8
 d= 0,ls=0.0,diis     5   -599.7738192619 -2.37D-03  5.93D-04  1.85D-03    22.1
  Resetting Diis
 d= 0,ls=0.0,diis     6   -599.7740205561 -2.01D-04  2.32D-04  2.99D-04    23.4
 d= 0,ls=0.0,diis     7   -599.7740666983 -4.61D-05  4.09D-05  2.57D-06    24.7
 d= 0,ls=0.0,diis     8   -599.7740659599  7.38D-07  1.86D-05  1.20D-05    26.2
 d= 0,ls=0.0,diis     9   -599.7740669770 -1.02D-06  5.13D-06  8.25D-08    27.5
 d= 0,ls=0.0,diis    10   -599.7740669862 -9.21D-09  1.20D-06  1.24D-08    28.8

           Memory utilization after 1st SCF pass: 
           Heap Space remaining (MW):       28.66            28663342
          Stack Space remaining (MW):       49.15            49151316

   convergence    iter        energy       DeltaE   RMS-Dens  Diis-err    time
 ---------------- ----- ----------------- --------- --------- ---------  ------
     COSMO solvation phase
 d= 0,ls=0.0,diis     1   -599.8697763692 -9.57D-02  4.59D-03  4.49D-03    30.2
 d= 0,ls=0.0,diis     2   -599.8709648425 -1.19D-03  6.92D-04  6.94D-03    31.6
 d= 0,ls=0.0,diis     3   -599.8715479040 -5.83D-04  5.70D-04  6.53D-04    33.0
 d= 0,ls=0.0,diis     4   -599.8716013467 -5.34D-05  9.86D-05  4.66D-05    34.5
 d= 0,ls=0.0,diis     5   -599.8716068277 -5.48D-06  3.48D-05  6.54D-06    35.9
 d= 0,ls=0.0,diis     6   -599.8716076012 -7.73D-07  1.12D-05  6.38D-07    37.4
 d= 0,ls=0.0,diis     7   -599.8716076828 -8.16D-08  3.38D-06  4.23D-08    38.8


         Total DFT energy =     -599.871607682813
      One electron energy =    -1011.807089208536
           Coulomb energy =      365.834565872421
    Exchange-Corr. energy =      -45.354805459132
 Nuclear repulsion energy =       85.063500539081

             COSMO energy =        6.392220573352

 Numeric. integr. density =       35.999999873270

     Total iterative time =     37.9s


                                   COSMO solvation results
                                   -----------------------

                 gas phase energy =      -599.774066986206
                 sol phase energy =      -599.871607682813
 (electrostatic) solvation energy =         0.097540696607 (   61.21 kcal/mol)

                  Occupations of the irreducible representations
                  ----------------------------------------------

                     irrep           alpha         beta
                     --------     --------     --------
                     a'               14.0         14.0
                     a"                4.0          4.0


                       DFT Final Molecular Orbital Analysis
                       ------------------------------------

 Vector    1  Occ=2.000000D+00  E=-1.014794D+02  Symmetry=a'
              MO Center= -8.8D-03, -1.6D+00, -1.6D-20, r^2= 3.2D-03
   Bfn.  Coefficient  Atom+Function         Bfn.  Coefficient  Atom+Function  
  ----- ------------  ---------------      ----- ------------  ---------------
    72      0.993387  6 Cl s                 73      0.030508  6 Cl s          
    74     -0.025215  6 Cl s          

 Vector    2  Occ=2.000000D+00  E=-2.458451D+01  Symmetry=a'
              MO Center= -1.3D-02,  2.6D+00,  2.4D-19, r^2= 1.2D-02
   Bfn.  Coefficient  Atom+Function         Bfn.  Coefficient  Atom+Function  
  ----- ------------  ---------------      ----- ------------  ---------------
    47      0.985563  5 F  s                 48     -0.047253  5 F  s          

 Vector    3  Occ=2.000000D+00  E=-1.025966D+01  Symmetry=a'
              MO Center= -1.1D-02,  5.5D-01, -3.2D-17, r^2= 2.8D-02
   Bfn.  Coefficient  Atom+Function         Bfn.  Coefficient  Atom+Function  
  ----- ------------  ---------------      ----- ------------  ---------------
     1      0.987528  1 C  s                  2      0.063228  1 C  s          
     4     -0.055342  1 C  s                  3     -0.054799  1 C  s          

 Vector    4  Occ=2.000000D+00  E=-9.410183D+00  Symmetry=a'
              MO Center= -8.8D-03, -1.6D+00,  3.1D-17, r^2= 6.6D-02
   Bfn.  Coefficient  Atom+Function         Bfn.  Coefficient  Atom+Function  
  ----- ------------  ---------------      ----- ------------  ---------------
    73      1.013638  6 Cl s                 72     -0.311083  6 Cl s          
    74      0.071545  6 Cl s          

 Vector    5  Occ=2.000000D+00  E=-7.176822D+00  Symmetry=a'
              MO Center= -8.8D-03, -1.6D+00,  4.6D-18, r^2= 5.8D-02
   Bfn.  Coefficient  Atom+Function         Bfn.  Coefficient  Atom+Function  
  ----- ------------  ---------------      ----- ------------  ---------------
    78      0.980456  6 Cl py                81     -0.053805  6 Cl py         

 Vector    6  Occ=2.000000D+00  E=-7.172493D+00  Symmetry=a"
              MO Center= -8.8D-03, -1.6D+00,  6.6D-18, r^2= 5.8D-02
   Bfn.  Coefficient  Atom+Function         Bfn.  Coefficient  Atom+Function  
  ----- ------------  ---------------      ----- ------------  ---------------
    79      0.981014  6 Cl pz                82     -0.050937  6 Cl pz         

 Vector    7  Occ=2.000000D+00  E=-7.172447D+00  Symmetry=a'
              MO Center= -8.8D-03, -1.6D+00, -3.5D-17, r^2= 5.8D-02
   Bfn.  Coefficient  Atom+Function         Bfn.  Coefficient  Atom+Function  
  ----- ------------  ---------------      ----- ------------  ---------------
    77      0.981019  6 Cl px                80     -0.050886  6 Cl px         

 Vector    8  Occ=2.000000D+00  E=-1.004085D+00  Symmetry=a'
              MO Center= -1.2D-02,  2.5D+00, -6.2D-16, r^2= 4.1D-01
   Bfn.  Coefficient  Atom+Function         Bfn.  Coefficient  Atom+Function  
  ----- ------------  ---------------      ----- ------------  ---------------
    48      0.614708  5 F  s                 49      0.434214  5 F  s          
    47      0.307934  5 F  s                  3      0.119934  1 C  s          
    32     -0.055151  3 H  s                 40     -0.055151  4 H  s          
    50      0.045861  5 F  s                  2      0.043993  1 C  s          
     4     -0.039507  1 C  s                 24     -0.030633  2 H  s          

 Vector    9  Occ=2.000000D+00  E=-7.684489D-01  Symmetry=a'
              MO Center=  6.4D-03, -1.1D+00, -1.4D-15, r^2= 1.5D+00
   Bfn.  Coefficient  Atom+Function         Bfn.  Coefficient  Atom+Function  
  ----- ------------  ---------------      ----- ------------  ---------------
     3      0.792010  1 C  s                 74      0.630620  6 Cl s          
    73     -0.465888  6 Cl s                 32     -0.332941  3 H  s          
    40     -0.332941  4 H  s                 75      0.295617  6 Cl s          
     4     -0.233407  1 C  s                  2      0.230526  1 C  s          
    22      0.186390  1 C  dzz               24     -0.173457  2 H  s          

 Vector   10  Occ=2.000000D+00  E=-6.698727D-01  Symmetry=a'
              MO Center=  5.8D-02,  4.4D-02,  1.4D-15, r^2= 2.2D+00
   Bfn.  Coefficient  Atom+Function         Bfn.  Coefficient  Atom+Function  
  ----- ------------  ---------------      ----- ------------  ---------------
     3      1.570476  1 C  s                 32     -0.658168  3 H  s          
    40     -0.658168  4 H  s                  4     -0.546006  1 C  s          
     2      0.479248  1 C  s                 22      0.406382  1 C  dzz        
    74     -0.387577  6 Cl s                 24     -0.304869  2 H  s          
    73      0.272693  6 Cl s                 17      0.237023  1 C  dxx        

 Vector   11  Occ=2.000000D+00  E=-4.666544D-01  Symmetry=a"
              MO Center= -1.7D-01,  5.4D-01, -9.8D-15, r^2= 1.3D+00
   Bfn.  Coefficient  Atom+Function         Bfn.  Coefficient  Atom+Function  
  ----- ------------  ---------------      ----- ------------  ---------------
     7      0.460824  1 C  pz                31      0.327998  3 H  s          
    39     -0.327998  4 H  s                 32      0.298465  3 H  s          
    40     -0.298465  4 H  s                 19      0.216550  1 C  dxz        
    53     -0.070250  5 F  pz                85      0.065116  6 Cl pz         
    38     -0.062953  3 H  pz                46     -0.062953  4 H  pz         

 Vector   12  Occ=2.000000D+00  E=-4.173984D-01  Symmetry=a'
              MO Center=  2.1D-01,  5.4D-01,  8.0D-15, r^2= 1.5D+00
   Bfn.  Coefficient  Atom+Function         Bfn.  Coefficient  Atom+Function  
  ----- ------------  ---------------      ----- ------------  ---------------
     5      0.456483  1 C  px                23      0.365786  2 H  s          
     3      0.340879  1 C  s                 32     -0.302787  3 H  s          
    40     -0.302787  4 H  s                 22      0.169253  1 C  dzz        
    31     -0.168054  3 H  s                 39     -0.168054  4 H  s          
     8      0.127923  1 C  px                51     -0.106014  5 F  px         

 Vector   13  Occ=2.000000D+00  E=-3.574072D-01  Symmetry=a'
              MO Center= -9.0D-03,  7.9D-01, -1.2D-16, r^2= 4.2D+00
   Bfn.  Coefficient  Atom+Function         Bfn.  Coefficient  Atom+Function  
  ----- ------------  ---------------      ----- ------------  ---------------
    52      0.426290  5 F  py                84     -0.324268  6 Cl py         
     6      0.275820  1 C  py                55     -0.273681  5 F  py         
    81     -0.248194  6 Cl py                 9      0.156851  1 C  py         
    78     -0.147183  6 Cl py                 3     -0.109185  1 C  s          
     4      0.091265  1 C  s                 74      0.088101  6 Cl s          

 Vector   14  Occ=2.000000D+00  E=-3.042822D-01  Symmetry=a"
              MO Center= -1.4D-02,  2.3D+00,  1.3D-15, r^2= 1.6D+00
   Bfn.  Coefficient  Atom+Function         Bfn.  Coefficient  Atom+Function  
  ----- ------------  ---------------      ----- ------------  ---------------
    53      0.625280  5 F  pz                56     -0.411584  5 F  pz         
    59     -0.148301  5 F  pz                85      0.130984  6 Cl pz         
    82      0.106985  6 Cl pz                21     -0.094774  1 C  dyz        
    79      0.062076  6 Cl pz                 7      0.059963  1 C  pz         
    31      0.044295  3 H  s                 39     -0.044295  4 H  s          

 Vector   15  Occ=2.000000D+00  E=-3.032671D-01  Symmetry=a'
              MO Center= -6.2D-03,  2.2D+00, -1.6D-15, r^2= 2.0D+00
   Bfn.  Coefficient  Atom+Function         Bfn.  Coefficient  Atom+Function  
  ----- ------------  ---------------      ----- ------------  ---------------
    51      0.615713  5 F  px                54     -0.406289  5 F  px         
    83      0.158020  6 Cl px                57     -0.144944  5 F  px         
     3      0.128826  1 C  s                 80      0.126846  6 Cl px         
    32     -0.086613  3 H  s                 40     -0.086613  4 H  s          
     5      0.074249  1 C  px                77      0.073715  6 Cl px         

 Vector   16  Occ=2.000000D+00  E=-2.783960D-01  Symmetry=a"
              MO Center= -1.2D-02, -1.4D+00,  1.7D-15, r^2= 2.2D+00
   Bfn.  Coefficient  Atom+Function         Bfn.  Coefficient  Atom+Function  
  ----- ------------  ---------------      ----- ------------  ---------------
    85      0.584433  6 Cl pz                82      0.451461  6 Cl pz         
    79      0.261597  6 Cl pz                53     -0.147819  5 F  pz         
    88      0.126924  6 Cl pz                 7     -0.110565  1 C  pz         
    56      0.098697  5 F  pz                31     -0.077699  3 H  s          
    39      0.077699  4 H  s                 59      0.040486  5 F  pz         

 Vector   17  Occ=2.000000D+00  E=-2.764390D-01  Symmetry=a'
              MO Center= -2.8D-03, -1.1D+00,  7.3D-17, r^2= 3.2D+00
   Bfn.  Coefficient  Atom+Function         Bfn.  Coefficient  Atom+Function  
  ----- ------------  ---------------      ----- ------------  ---------------
    83      0.532409  6 Cl px                80      0.411314  6 Cl px         
     3     -0.359315  1 C  s                 77      0.238188  6 Cl px         
    32      0.176741  3 H  s                 40      0.176741  4 H  s          
    84      0.175179  6 Cl py                52      0.171330  5 F  py         
    51     -0.150075  5 F  px                23     -0.134441  2 H  s          

 Vector   18  Occ=2.000000D+00  E=-2.728478D-01  Symmetry=a'
              MO Center= -1.1D-02,  8.5D-02,  5.2D-16, r^2= 5.2D+00
   Bfn.  Coefficient  Atom+Function         Bfn.  Coefficient  Atom+Function  
  ----- ------------  ---------------      ----- ------------  ---------------
    84      0.421504  6 Cl py                52      0.406612  5 F  py         
     3     -0.365400  1 C  s                 81      0.317213  6 Cl py         
    55     -0.273888  5 F  py                83     -0.214357  6 Cl px         
    78      0.184423  6 Cl py                80     -0.165653  6 Cl px         
     2     -0.130856  1 C  s                 32      0.122560  3 H  s          

 Vector   19  Occ=0.000000D+00  E=-1.834311D-02  Symmetry=a'
              MO Center= -4.8D-03,  9.6D-02,  4.2D-16, r^2= 5.1D+00
   Bfn.  Coefficient  Atom+Function         Bfn.  Coefficient  Atom+Function  
  ----- ------------  ---------------      ----- ------------  ---------------
     3      2.246465  1 C  s                  4     -1.447460  1 C  s          
    32     -0.713426  3 H  s                 40     -0.713426  4 H  s          
    76      0.684195  6 Cl s                  6     -0.549401  1 C  py         
    22      0.488463  1 C  dzz               24     -0.483062  2 H  s          
     9     -0.465222  1 C  py                75     -0.398145  6 Cl s          

 Vector   20  Occ=0.000000D+00  E= 1.459274D-02  Symmetry=a'
              MO Center=  3.9D-02, -6.4D-01,  1.1D-14, r^2= 9.1D+00
   Bfn.  Coefficient  Atom+Function         Bfn.  Coefficient  Atom+Function  
  ----- ------------  ---------------      ----- ------------  ---------------
     3      5.682108  1 C  s                  4     -4.211537  1 C  s          
    76     -1.889973  6 Cl s                 32     -1.740193  3 H  s          
    40     -1.740193  4 H  s                 22      1.362966  1 C  dzz        
    24     -1.149246  2 H  s                 17      1.022705  1 C  dxx        
    75      0.911760  6 Cl s                 20      0.644068  1 C  dyy        

 Vector   21  Occ=0.000000D+00  E= 6.440446D-02  Symmetry=a'
              MO Center= -2.1D-02, -1.3D+00, -8.7D-16, r^2= 1.0D+01
   Bfn.  Coefficient  Atom+Function         Bfn.  Coefficient  Atom+Function  
  ----- ------------  ---------------      ----- ------------  ---------------
     3      4.295749  1 C  s                  4     -3.448241  1 C  s          
    76      1.947141  6 Cl s                 32     -1.127720  3 H  s          
    40     -1.127720  4 H  s                 22      1.059853  1 C  dzz        
    20      0.879466  1 C  dyy               17      0.832830  1 C  dxx        
    87     -0.812816  6 Cl py                75     -0.761146  6 Cl s          

 Vector   22  Occ=0.000000D+00  E= 7.679480D-02  Symmetry=a"
              MO Center= -1.5D-01, -1.1D+00, -5.6D-15, r^2= 9.4D+00
   Bfn.  Coefficient  Atom+Function         Bfn.  Coefficient  Atom+Function  
  ----- ------------  ---------------      ----- ------------  ---------------
    32      1.501305  3 H  s                 40     -1.501305  4 H  s          
    88     -1.077610  6 Cl pz                38     -0.709519  3 H  pz         
    46     -0.709519  4 H  pz                10     -0.638061  1 C  pz         
    19      0.586086  1 C  dxz               85      0.352164  6 Cl pz         
    30     -0.310660  2 H  pz                99     -0.193507  6 Cl dyz        

 Vector   23  Occ=0.000000D+00  E= 7.929846D-02  Symmetry=a'
              MO Center=  2.8D-03, -7.1D-02,  3.3D-16, r^2= 1.3D+01
   Bfn.  Coefficient  Atom+Function         Bfn.  Coefficient  Atom+Function  
  ----- ------------  ---------------      ----- ------------  ---------------
     4     -4.950881  1 C  s                  3      4.671499  1 C  s          
    32     -2.170669  3 H  s                 40     -2.170669  4 H  s          
    76      1.949740  6 Cl s                 22      1.403652  1 C  dzz        
    87      1.194182  6 Cl py                58     -0.899287  5 F  py         
    86     -0.808259  6 Cl px                17      0.727458  1 C  dxx        

 Vector   24  Occ=0.000000D+00  E= 7.966944D-02  Symmetry=a'
              MO Center=  3.1D-01,  2.1D-01, -3.6D-14, r^2= 1.4D+01
   Bfn.  Coefficient  Atom+Function         Bfn.  Coefficient  Atom+Function  
  ----- ------------  ---------------      ----- ------------  ---------------
     3      6.634030  1 C  s                  4     -6.541733  1 C  s          
    76      2.408791  6 Cl s                 24     -2.338471  2 H  s          
    32     -1.592329  3 H  s                 40     -1.592329  4 H  s          
    22      1.472910  1 C  dzz               87      1.447424  6 Cl py         
    17      1.282228  1 C  dxx               58     -1.045995  5 F  py         

 Vector   25  Occ=0.000000D+00  E= 1.085969D-01  Symmetry=a'
              MO Center= -2.0D-01, -5.3D-02, -5.4D-17, r^2= 6.3D+00
   Bfn.  Coefficient  Atom+Function         Bfn.  Coefficient  Atom+Function  
  ----- ------------  ---------------      ----- ------------  ---------------
     3      3.488408  1 C  s                 32     -1.262289  3 H  s          
    40     -1.262289  4 H  s                 38      0.857782  3 H  pz         
    46     -0.857782  4 H  pz                 4     -0.833005  1 C  s          
    76     -0.750909  6 Cl s                 87     -0.607142  6 Cl py         
    22      0.573413  1 C  dzz               20      0.557907  1 C  dyy        

 Vector   26  Occ=0.000000D+00  E= 1.292060D-01  Symmetry=a"
              MO Center= -2.7D-01,  5.2D-01,  1.2D-14, r^2= 9.6D+00
   Bfn.  Coefficient  Atom+Function         Bfn.  Coefficient  Atom+Function  
  ----- ------------  ---------------      ----- ------------  ---------------
    32      0.831072  3 H  s                 40     -0.831072  4 H  s          
    38     -0.819658  3 H  pz                46     -0.819658  4 H  pz         
    59     -0.742645  5 F  pz                88      0.731630  6 Cl pz         
    21      0.561470  1 C  dyz               36      0.500263  3 H  px         
    44     -0.500263  4 H  px                10     -0.430952  1 C  pz         

 Vector   27  Occ=0.000000D+00  E= 1.403093D-01  Symmetry=a'
              MO Center=  3.2D-01,  9.9D-01, -7.3D-12, r^2= 1.1D+01
   Bfn.  Coefficient  Atom+Function         Bfn.  Coefficient  Atom+Function  
  ----- ------------  ---------------      ----- ------------  ---------------
     4      2.890066  1 C  s                 76     -2.572006  6 Cl s          
    87     -1.383710  6 Cl py                24     -1.330910  2 H  s          
    28      0.945582  2 H  px                75      0.791168  6 Cl s          
    57      0.778181  5 F  px                58     -0.688911  5 F  py         
    86     -0.489054  6 Cl px                20     -0.355653  1 C  dyy        

 Vector   28  Occ=0.000000D+00  E= 1.425051D-01  Symmetry=a"
              MO Center=  3.8D-01,  4.7D-01,  7.4D-12, r^2= 6.7D+00
   Bfn.  Coefficient  Atom+Function         Bfn.  Coefficient  Atom+Function  
  ----- ------------  ---------------      ----- ------------  ---------------
    19      2.368407  1 C  dxz               32      1.951975  3 H  s          
    40     -1.951975  4 H  s                 30     -1.469425  2 H  pz         
    36     -0.828999  3 H  px                44      0.828999  4 H  px         
    38     -0.634472  3 H  pz                46     -0.634472  4 H  pz         
    97     -0.513741  6 Cl dxz               59     -0.507008  5 F  pz         

 Vector   29  Occ=0.000000D+00  E= 1.441928D-01  Symmetry=a'
              MO Center= -4.2D-01,  1.3D+00, -7.0D-14, r^2= 1.2D+01
   Bfn.  Coefficient  Atom+Function         Bfn.  Coefficient  Atom+Function  
  ----- ------------  ---------------      ----- ------------  ---------------
     4     -7.891502  1 C  s                  3      7.183217  1 C  s          
    76      3.470250  6 Cl s                 24     -1.794282  2 H  s          
    87      1.724387  6 Cl py                20      1.502209  1 C  dyy        
    22      1.257266  1 C  dzz               17      1.241844  1 C  dxx        
    75     -1.121937  6 Cl s                 58      0.994750  5 F  py         

 Vector   30  Occ=0.000000D+00  E= 1.975195D-01  Symmetry=a"
              MO Center= -8.3D-02,  1.5D-01, -1.2D-14, r^2= 8.9D+00
   Bfn.  Coefficient  Atom+Function         Bfn.  Coefficient  Atom+Function  
  ----- ------------  ---------------      ----- ------------  ---------------
    99      1.016420  6 Cl dyz               21      0.984286  1 C  dyz        
    59     -0.815229  5 F  pz                19     -0.810856  1 C  dxz        
    30      0.684158  2 H  pz                38      0.603898  3 H  pz         
    46      0.603898  4 H  pz                32     -0.520205  3 H  s          
    40      0.520205  4 H  s                 37     -0.471603  3 H  py         

 Vector   31  Occ=0.000000D+00  E= 2.041129D-01  Symmetry=a'
              MO Center=  1.5D-01, -1.3D-02, -7.6D-16, r^2= 8.6D+00
   Bfn.  Coefficient  Atom+Function         Bfn.  Coefficient  Atom+Function  
  ----- ------------  ---------------      ----- ------------  ---------------
     3      4.736520  1 C  s                  4     -2.777166  1 C  s          
    32     -1.158801  3 H  s                 40     -1.158801  4 H  s          
    96      1.077608  6 Cl dxy               28      1.017588  2 H  px         
    22      0.999662  1 C  dzz               24     -0.927275  2 H  s          
    57     -0.761191  5 F  px                20      0.683904  1 C  dyy        

 Vector   32  Occ=0.000000D+00  E= 2.348030D-01  Symmetry=a'
              MO Center= -1.1D-01,  1.3D-01,  1.6D-14, r^2= 8.7D+00
   Bfn.  Coefficient  Atom+Function         Bfn.  Coefficient  Atom+Function  
  ----- ------------  ---------------      ----- ------------  ---------------
     3     18.686496  1 C  s                 32     -6.506310  3 H  s          
    40     -6.506310  4 H  s                  4     -5.963845  1 C  s          
    22      4.476229  1 C  dzz               24     -3.693198  2 H  s          
    20      2.628417  1 C  dyy               17      2.330935  1 C  dxx        
    50     -1.868917  5 F  s                 38      1.680151  3 H  pz         

 Vector   33  Occ=0.000000D+00  E= 2.427037D-01  Symmetry=a'
              MO Center=  2.4D-01, -6.1D-02, -5.8D-14, r^2= 7.8D+00
   Bfn.  Coefficient  Atom+Function         Bfn.  Coefficient  Atom+Function  
  ----- ------------  ---------------      ----- ------------  ---------------
     3     13.613398  1 C  s                 32     -5.085836  3 H  s          
    40     -5.085836  4 H  s                  4     -3.534381  1 C  s          
    22      2.958283  1 C  dzz               20      1.975388  1 C  dyy        
    24     -1.981927  2 H  s                 50     -1.954874  5 F  s          
    17      1.821845  1 C  dxx               76     -1.566394  6 Cl s          

 Vector   34  Occ=0.000000D+00  E= 2.519747D-01  Symmetry=a"
              MO Center= -1.4D-01, -6.2D-01,  1.1D-14, r^2= 6.5D+00
   Bfn.  Coefficient  Atom+Function         Bfn.  Coefficient  Atom+Function  
  ----- ------------  ---------------      ----- ------------  ---------------
    97      1.338544  6 Cl dxz               32      0.794340  3 H  s          
    40     -0.794340  4 H  s                 37      0.623137  3 H  py         
    45     -0.623137  4 H  py                21     -0.595899  1 C  dyz        
    59     -0.453749  5 F  pz                30     -0.370778  2 H  pz         
    19      0.330514  1 C  dxz               36     -0.264636  3 H  px         

 Vector   35  Occ=0.000000D+00  E= 2.687050D-01  Symmetry=a'
              MO Center= -3.8D-02,  9.7D-01,  1.5D-13, r^2= 1.1D+01
   Bfn.  Coefficient  Atom+Function         Bfn.  Coefficient  Atom+Function  
  ----- ------------  ---------------      ----- ------------  ---------------
     3     27.370360  1 C  s                  4    -20.415379  1 C  s          
    50     10.130885  5 F  s                 32     -9.045919  3 H  s          
    40     -9.045919  4 H  s                 22      6.197271  1 C  dzz        
    24     -4.826940  2 H  s                 17      3.914172  1 C  dxx        
    58     -3.038279  5 F  py                49     -2.525669  5 F  s          

 Vector   36  Occ=0.000000D+00  E= 2.815616D-01  Symmetry=a"
              MO Center=  1.4D-01,  4.6D-01, -3.6D-15, r^2= 7.6D+00
   Bfn.  Coefficient  Atom+Function         Bfn.  Coefficient  Atom+Function  
  ----- ------------  ---------------      ----- ------------  ---------------
    19      0.941065  1 C  dxz               59      0.900486  5 F  pz         
    30     -0.892386  2 H  pz                99      0.754179  6 Cl dyz        
    97      0.685864  6 Cl dxz               21     -0.494906  1 C  dyz        
    10      0.485712  1 C  pz                36     -0.471887  3 H  px         
    44      0.471887  4 H  px                37     -0.370667  3 H  py         

 Vector   37  Occ=0.000000D+00  E= 2.915111D-01  Symmetry=a'
              MO Center= -9.6D-02,  6.3D-01,  5.5D-15, r^2= 7.4D+00
   Bfn.  Coefficient  Atom+Function         Bfn.  Coefficient  Atom+Function  
  ----- ------------  ---------------      ----- ------------  ---------------
     3      5.934753  1 C  s                 24     -2.366985  2 H  s          
    32     -2.200470  3 H  s                 40     -2.200470  4 H  s          
     4     -1.113092  1 C  s                 22      1.081126  1 C  dzz        
    17      0.925344  1 C  dxx               57      0.907947  5 F  px         
    36     -0.863079  3 H  px                44     -0.863079  4 H  px         

 Vector   38  Occ=0.000000D+00  E= 3.075976D-01  Symmetry=a'
              MO Center= -2.1D-01, -4.4D-01,  6.2D-15, r^2= 8.4D+00
   Bfn.  Coefficient  Atom+Function         Bfn.  Coefficient  Atom+Function  
  ----- ------------  ---------------      ----- ------------  ---------------
     3     33.988357  1 C  s                  4    -13.307717  1 C  s          
    32    -13.308436  3 H  s                 40    -13.308436  4 H  s          
    22      6.428957  1 C  dzz               76      6.158701  6 Cl s          
    24     -5.866575  2 H  s                 38      3.638664  3 H  pz         
    46     -3.638664  4 H  pz                17      2.948284  1 C  dxx        

 Vector   39  Occ=0.000000D+00  E= 3.365582D-01  Symmetry=a'
              MO Center= -9.2D-02, -1.6D+00,  5.3D-14, r^2= 8.6D+00
   Bfn.  Coefficient  Atom+Function         Bfn.  Coefficient  Atom+Function  
  ----- ------------  ---------------      ----- ------------  ---------------
     3     13.592973  1 C  s                 32     -7.511931  3 H  s          
    40     -7.511931  4 H  s                 38      2.548638  3 H  pz         
    46     -2.548638  4 H  pz                76     -2.423029  6 Cl s          
    98      2.408685  6 Cl dyy               22      2.030814  1 C  dzz        
     4     -1.945004  1 C  s                  8     -1.505698  1 C  px         

 Vector   40  Occ=0.000000D+00  E= 3.456440D-01  Symmetry=a"
              MO Center=  3.6D-03,  5.6D-01,  2.0D-13, r^2= 6.1D+00
   Bfn.  Coefficient  Atom+Function         Bfn.  Coefficient  Atom+Function  
  ----- ------------  ---------------      ----- ------------  ---------------
    19      1.867546  1 C  dxz               32      1.838236  3 H  s          
    40     -1.838236  4 H  s                 36     -1.437417  3 H  px         
    44      1.437417  4 H  px                38     -1.241763  3 H  pz         
    46     -1.241763  4 H  pz                10     -1.093444  1 C  pz         
    30      0.917360  2 H  pz                37      0.315238  3 H  py         

 Vector   41  Occ=0.000000D+00  E= 3.529311D-01  Symmetry=a'
              MO Center=  5.7D-01, -3.5D-01, -6.5D-14, r^2= 7.8D+00
   Bfn.  Coefficient  Atom+Function         Bfn.  Coefficient  Atom+Function  
  ----- ------------  ---------------      ----- ------------  ---------------
    24      5.636547  2 H  s                 28     -2.856462  2 H  px         
     3     -2.827350  1 C  s                  8     -2.736956  1 C  px         
    98     -1.425149  6 Cl dyy               22     -1.283632  1 C  dzz        
    87     -1.126047  6 Cl py                38      1.109777  3 H  pz         
    46     -1.109777  4 H  pz                29     -1.039828  2 H  py         

 Vector   42  Occ=0.000000D+00  E= 3.830260D-01  Symmetry=a'
              MO Center= -5.8D-02, -3.8D-01, -2.2D-12, r^2= 8.8D+00
   Bfn.  Coefficient  Atom+Function         Bfn.  Coefficient  Atom+Function  
  ----- ------------  ---------------      ----- ------------  ---------------
     4     10.820901  1 C  s                  3      9.525213  1 C  s          
    76     -6.520329  6 Cl s                 32     -6.028938  3 H  s          
    40     -6.028938  4 H  s                 87     -2.605698  6 Cl py         
    24     -2.265419  2 H  s                 17     -1.755430  1 C  dxx        
    50     -1.598802  5 F  s                 95      1.561960  6 Cl dxx        

 Vector   43  Occ=0.000000D+00  E= 3.899163D-01  Symmetry=a"
              MO Center= -3.8D-01,  3.9D-02,  1.1D-12, r^2= 7.0D+00
   Bfn.  Coefficient  Atom+Function         Bfn.  Coefficient  Atom+Function  
  ----- ------------  ---------------      ----- ------------  ---------------
    32      4.222477  3 H  s                 40     -4.222477  4 H  s          
    10     -3.227192  1 C  pz                19     -2.446558  1 C  dxz        
    38     -1.805144  3 H  pz                46     -1.805144  4 H  pz         
    99     -1.585570  6 Cl dyz               36      1.471868  3 H  px         
    44     -1.471868  4 H  px                37     -1.401180  3 H  py         

 Vector   44  Occ=0.000000D+00  E= 4.075900D-01  Symmetry=a'
              MO Center=  4.0D-01, -7.9D-02, -5.1D-16, r^2= 7.6D+00
   Bfn.  Coefficient  Atom+Function         Bfn.  Coefficient  Atom+Function  
  ----- ------------  ---------------      ----- ------------  ---------------
     3      3.496919  1 C  s                  4     -2.274097  1 C  s          
    32     -2.216580  3 H  s                 40     -2.216580  4 H  s          
    29      1.956617  2 H  py                96      1.411784  6 Cl dxy        
    28     -1.289508  2 H  px                37     -1.261421  3 H  py         
    45     -1.261421  4 H  py                 8     -1.090994  1 C  px         

 Vector   45  Occ=0.000000D+00  E= 4.194104D-01  Symmetry=a"
              MO Center= -4.6D-01,  6.9D-02,  5.3D-13, r^2= 7.3D+00
   Bfn.  Coefficient  Atom+Function         Bfn.  Coefficient  Atom+Function  
  ----- ------------  ---------------      ----- ------------  ---------------
    32      4.062630  3 H  s                 40     -4.062630  4 H  s          
    10     -2.988941  1 C  pz                38     -2.141019  3 H  pz         
    46     -2.141019  4 H  pz                36      1.540915  3 H  px         
    44     -1.540915  4 H  px                37      1.479309  3 H  py         
    45     -1.479309  4 H  py                99      1.379679  6 Cl dyz        

 Vector   46  Occ=0.000000D+00  E= 4.300230D-01  Symmetry=a'
              MO Center=  9.7D-02,  5.4D-01,  1.8D-14, r^2= 8.7D+00
   Bfn.  Coefficient  Atom+Function         Bfn.  Coefficient  Atom+Function  
  ----- ------------  ---------------      ----- ------------  ---------------
    50      7.332312  5 F  s                 58     -2.568826  5 F  py         
    29     -2.123437  2 H  py                49     -1.928877  5 F  s          
    37     -1.899635  3 H  py                45     -1.899635  4 H  py         
     3      1.652222  1 C  s                  4     -1.605695  1 C  s          
     9      1.573373  1 C  py                32     -1.330989  3 H  s          

 Vector   47  Occ=0.000000D+00  E= 4.565874D-01  Symmetry=a'
              MO Center= -1.3D-01,  3.7D-03,  2.0D-15, r^2= 7.0D+00
   Bfn.  Coefficient  Atom+Function         Bfn.  Coefficient  Atom+Function  
  ----- ------------  ---------------      ----- ------------  ---------------
    18      4.906570  1 C  dxy                3      4.522144  1 C  s          
    24     -2.862402  2 H  s                 29     -2.357781  2 H  py         
    50      2.151231  5 F  s                 96      1.750880  6 Cl dxy        
     4     -1.424111  1 C  s                 32     -1.423670  3 H  s          
    40     -1.423670  4 H  s                 22      0.939234  1 C  dzz        

 Vector   48  Occ=0.000000D+00  E= 4.642520D-01  Symmetry=a"
              MO Center=  8.5D-01,  5.9D-01,  1.8D-13, r^2= 5.5D+00
   Bfn.  Coefficient  Atom+Function         Bfn.  Coefficient  Atom+Function  
  ----- ------------  ---------------      ----- ------------  ---------------
    19     11.609507  1 C  dxz               32     11.138154  3 H  s          
    40    -11.138154  4 H  s                 30     -5.004964  2 H  pz         
    10     -3.713034  1 C  pz                38     -3.501006  3 H  pz         
    46     -3.501006  4 H  pz                36     -1.861372  3 H  px         
    44      1.861372  4 H  px                21      0.710693  1 C  dyz        

 Vector   49  Occ=0.000000D+00  E= 4.662616D-01  Symmetry=a"
              MO Center=  1.5D-01,  2.3D-01, -2.3D-14, r^2= 6.5D+00
   Bfn.  Coefficient  Atom+Function         Bfn.  Coefficient  Atom+Function  
  ----- ------------  ---------------      ----- ------------  ---------------
    21      6.741671  1 C  dyz               37     -2.626944  3 H  py         
    45      2.626944  4 H  py                32     -1.914069  3 H  s          
    40      1.914069  4 H  s                 19     -1.648221  1 C  dxz        
    99      1.362352  6 Cl dyz               97      0.803339  6 Cl dxz        
    10      0.678724  1 C  pz                38      0.479625  3 H  pz         

 Vector   50  Occ=0.000000D+00  E= 4.707997D-01  Symmetry=a'
              MO Center= -3.7D-01,  5.5D-01, -5.6D-14, r^2= 6.9D+00
   Bfn.  Coefficient  Atom+Function         Bfn.  Coefficient  Atom+Function  
  ----- ------------  ---------------      ----- ------------  ---------------
     3     25.223477  1 C  s                 24    -19.634311  2 H  s          
     4    -10.884758  1 C  s                 17      6.941951  1 C  dxx        
    28      6.256013  2 H  px                 8      3.832902  1 C  px         
    20      2.708943  1 C  dyy               38      2.398755  3 H  pz         
    46     -2.398755  4 H  pz                36      2.334713  3 H  px         

 Vector   51  Occ=0.000000D+00  E= 5.325786D-01  Symmetry=a'
              MO Center=  2.5D-01,  7.9D-01,  1.2D-13, r^2= 6.2D+00
   Bfn.  Coefficient  Atom+Function         Bfn.  Coefficient  Atom+Function  
  ----- ------------  ---------------      ----- ------------  ---------------
     3     76.137877  1 C  s                 32    -36.918416  3 H  s          
    40    -36.918416  4 H  s                 22     20.459726  1 C  dzz        
     4    -16.171797  1 C  s                 24    -14.594211  2 H  s          
    17      7.794055  1 C  dxx               38      6.478642  3 H  pz         
    46     -6.478642  4 H  pz                20      6.011159  1 C  dyy        

 Vector   52  Occ=0.000000D+00  E= 6.301191D-01  Symmetry=a'
              MO Center= -3.7D-02,  1.7D+00, -2.7D-14, r^2= 7.2D+00
   Bfn.  Coefficient  Atom+Function         Bfn.  Coefficient  Atom+Function  
  ----- ------------  ---------------      ----- ------------  ---------------
     3     13.125653  1 C  s                 32     -7.795084  3 H  s          
    40     -7.795084  4 H  s                 20     -4.750057  1 C  dyy        
    24     -4.003429  2 H  s                 22      3.762516  1 C  dzz        
    50      3.298711  5 F  s                 75      3.203667  6 Cl s          
     4     -2.227736  1 C  s                 58     -2.147639  5 F  py         

 Vector   53  Occ=0.000000D+00  E= 6.855189D-01  Symmetry=a"
              MO Center= -2.4D-01,  2.1D+00,  9.7D-15, r^2= 4.3D+00
   Bfn.  Coefficient  Atom+Function         Bfn.  Coefficient  Atom+Function  
  ----- ------------  ---------------      ----- ------------  ---------------
    21      3.823828  1 C  dyz               37     -2.123645  3 H  py         
    45      2.123645  4 H  py                68     -1.850051  5 F  dxz        
    32      1.003322  3 H  s                 40     -1.003322  4 H  s          
    19      0.869727  1 C  dxz               10     -0.499479  1 C  pz         
    97      0.320550  6 Cl dxz               38     -0.250707  3 H  pz         

 Vector   54  Occ=0.000000D+00  E= 6.949650D-01  Symmetry=a'
              MO Center= -3.3D-02,  1.9D+00,  9.3D-14, r^2= 6.4D+00
   Bfn.  Coefficient  Atom+Function         Bfn.  Coefficient  Atom+Function  
  ----- ------------  ---------------      ----- ------------  ---------------
     3     66.826972  1 C  s                 32    -28.930506  3 H  s          
    40    -28.930506  4 H  s                  4    -20.964705  1 C  s          
    24    -15.938957  2 H  s                 22     15.292633  1 C  dzz        
    50     11.090394  5 F  s                 17      7.874570  1 C  dxx        
    38      5.911529  3 H  pz                46     -5.911529  4 H  pz         

 Vector   55  Occ=0.000000D+00  E= 7.055030D-01  Symmetry=a'
              MO Center=  2.3D-01,  2.0D+00, -5.7D-16, r^2= 4.4D+00
   Bfn.  Coefficient  Atom+Function         Bfn.  Coefficient  Atom+Function  
  ----- ------------  ---------------      ----- ------------  ---------------
    18      2.444027  1 C  dxy               29     -1.967092  2 H  py         
     3     -1.195363  1 C  s                 24      1.123611  2 H  s          
    37      1.103476  3 H  py                45      1.103476  4 H  py         
    66      1.103891  5 F  dxx               50     -1.029149  5 F  s          
    71     -0.769854  5 F  dzz                4      0.576465  1 C  s          

 Vector   56  Occ=0.000000D+00  E= 7.784635D-01  Symmetry=a"
              MO Center= -5.4D-02,  1.7D+00,  1.2D-14, r^2= 5.8D+00
   Bfn.  Coefficient  Atom+Function         Bfn.  Coefficient  Atom+Function  
  ----- ------------  ---------------      ----- ------------  ---------------
    19      2.460012  1 C  dxz               70      2.187984  5 F  dyz        
    21      2.004040  1 C  dyz               59     -0.889977  5 F  pz         
    99      0.890167  6 Cl dyz               30     -0.773503  2 H  pz         
    10      0.743359  1 C  pz                36     -0.689821  3 H  px         
    44      0.689821  4 H  px                88      0.533016  6 Cl pz         

 Vector   57  Occ=0.000000D+00  E= 7.861134D-01  Symmetry=a'
              MO Center=  7.2D-03,  1.8D+00, -2.8D-15, r^2= 5.8D+00
   Bfn.  Coefficient  Atom+Function         Bfn.  Coefficient  Atom+Function  
  ----- ------------  ---------------      ----- ------------  ---------------
    32      3.362507  3 H  s                 40      3.362507  4 H  s          
    24     -2.533959  2 H  s                  4     -2.434854  1 C  s          
    18     -2.260547  1 C  dxy               22     -2.261452  1 C  dzz        
    67     -2.232757  5 F  dxy               50      1.636292  5 F  s          
    17      1.412009  1 C  dxx                3     -1.205855  1 C  s          

 Vector   58  Occ=0.000000D+00  E= 7.996573D-01  Symmetry=a'
              MO Center= -1.6D-02,  1.2D+00,  1.8D-14, r^2= 6.9D+00
   Bfn.  Coefficient  Atom+Function         Bfn.  Coefficient  Atom+Function  
  ----- ------------  ---------------      ----- ------------  ---------------
    50      7.013738  5 F  s                  4     -5.593765  1 C  s          
     9     -2.914906  1 C  py                58     -2.307383  5 F  py         
     3     -2.084992  1 C  s                 71     -1.856042  5 F  dzz        
    66     -1.772986  5 F  dxx               24      1.662993  2 H  s          
    49     -1.584238  5 F  s                 76      1.476161  6 Cl s          

 Vector   59  Occ=0.000000D+00  E= 8.976450D-01  Symmetry=a"
              MO Center= -1.3D-01,  8.2D-01, -2.1D-13, r^2= 4.3D+00
   Bfn.  Coefficient  Atom+Function         Bfn.  Coefficient  Atom+Function  
  ----- ------------  ---------------      ----- ------------  ---------------
    32      9.078085  3 H  s                 40     -9.078085  4 H  s          
    10     -6.491820  1 C  pz                38     -2.848386  3 H  pz         
    46     -2.848386  4 H  pz                36      1.067505  3 H  px         
    44     -1.067505  4 H  px                19      1.046746  1 C  dxz        
    70      0.975932  5 F  dyz                7      0.890030  1 C  pz         

 Vector   60  Occ=0.000000D+00  E= 9.122260D-01  Symmetry=a'
              MO Center=  3.4D-02,  8.0D-02,  2.3D-13, r^2= 4.1D+00
   Bfn.  Coefficient  Atom+Function         Bfn.  Coefficient  Atom+Function  
  ----- ------------  ---------------      ----- ------------  ---------------
     3     18.569651  1 C  s                 24    -16.359990  2 H  s          
     8      6.557432  1 C  px                28      4.761876  2 H  px         
    17      3.746690  1 C  dxx                4     -2.946947  1 C  s          
    20      1.215733  1 C  dyy               32     -1.086919  3 H  s          
    40     -1.086919  4 H  s                 38      0.927826  3 H  pz         

 Vector   61  Occ=0.000000D+00  E= 9.415411D-01  Symmetry=a'
              MO Center= -2.2D-01,  1.6D-01, -2.2D-13, r^2= 5.5D+00
   Bfn.  Coefficient  Atom+Function         Bfn.  Coefficient  Atom+Function  
  ----- ------------  ---------------      ----- ------------  ---------------
     3     30.634775  1 C  s                 32    -15.763337  3 H  s          
    40    -15.763337  4 H  s                 50     -5.067105  5 F  s          
    24     -4.710513  2 H  s                 22      4.560950  1 C  dzz        
     4      4.280718  1 C  s                 38      3.524844  3 H  pz         
    46     -3.524844  4 H  pz                76     -2.489275  6 Cl s          

 Vector   62  Occ=0.000000D+00  E= 9.686591D-01  Symmetry=a'
              MO Center=  1.5D-01,  1.5D-02, -1.8D-13, r^2= 5.6D+00
   Bfn.  Coefficient  Atom+Function         Bfn.  Coefficient  Atom+Function  
  ----- ------------  ---------------      ----- ------------  ---------------
     3      9.771224  1 C  s                 32     -5.567738  3 H  s          
    40     -5.567738  4 H  s                 22      4.377520  1 C  dzz        
    24     -3.195644  2 H  s                  4      2.827953  1 C  s          
    50     -1.751448  5 F  s                 17     -1.490524  1 C  dxx        
    28      1.482013  2 H  px                36     -1.319895  3 H  px         

 Vector   63  Occ=0.000000D+00  E= 1.008174D+00  Symmetry=a"
              MO Center= -1.7D-02, -1.6D+00, -6.1D-14, r^2= 1.8D+00
   Bfn.  Coefficient  Atom+Function         Bfn.  Coefficient  Atom+Function  
  ----- ------------  ---------------      ----- ------------  ---------------
    32      1.904749  3 H  s                 40     -1.904749  4 H  s          
    91      1.785976  6 Cl dxz               10     -1.711635  1 C  pz         
    97     -1.048515  6 Cl dxz               21     -0.683686  1 C  dyz        
    38     -0.626662  3 H  pz                46     -0.626662  4 H  pz         
    19      0.495412  1 C  dxz               37      0.464903  3 H  py         

 Vector   64  Occ=0.000000D+00  E= 1.021418D+00  Symmetry=a'
              MO Center=  1.6D-01, -1.0D+00, -7.9D-14, r^2= 3.5D+00
   Bfn.  Coefficient  Atom+Function         Bfn.  Coefficient  Atom+Function  
  ----- ------------  ---------------      ----- ------------  ---------------
     3     11.507405  1 C  s                 24     -6.876606  2 H  s          
    32     -3.866237  3 H  s                 40     -3.866237  4 H  s          
    22      2.636835  1 C  dzz               28      2.269250  2 H  px         
     8      2.130739  1 C  px                36     -0.734698  3 H  px         
    44     -0.734698  4 H  px                94     -0.736244  6 Cl dzz        

 Vector   65  Occ=0.000000D+00  E= 1.024492D+00  Symmetry=a"
              MO Center=  6.5D-03, -1.1D+00,  2.1D-13, r^2= 3.8D+00
   Bfn.  Coefficient  Atom+Function         Bfn.  Coefficient  Atom+Function  
  ----- ------------  ---------------      ----- ------------  ---------------
    19      3.915519  1 C  dxz               32      2.683828  3 H  s          
    40     -2.683828  4 H  s                 10     -1.994075  1 C  pz         
    93     -1.618457  6 Cl dyz               21     -1.480040  1 C  dyz        
    30     -1.319521  2 H  pz                99      1.289034  6 Cl dyz        
    38     -0.974778  3 H  pz                46     -0.974778  4 H  pz         

 Vector   66  Occ=0.000000D+00  E= 1.055692D+00  Symmetry=a'
              MO Center= -6.1D-02,  6.3D-01,  3.5D-13, r^2= 4.7D+00
   Bfn.  Coefficient  Atom+Function         Bfn.  Coefficient  Atom+Function  
  ----- ------------  ---------------      ----- ------------  ---------------
     3     32.369028  1 C  s                 32    -13.693285  3 H  s          
    40    -13.693285  4 H  s                 24     -9.592088  2 H  s          
    50      4.257662  5 F  s                 22      3.754972  1 C  dzz        
    38      3.478981  3 H  pz                46     -3.478981  4 H  pz         
    28      2.538528  2 H  px                17      2.376518  1 C  dxx        

 Vector   67  Occ=0.000000D+00  E= 1.086663D+00  Symmetry=a'
              MO Center= -1.9D-01, -1.1D+00,  5.8D-16, r^2= 3.9D+00
   Bfn.  Coefficient  Atom+Function         Bfn.  Coefficient  Atom+Function  
  ----- ------------  ---------------      ----- ------------  ---------------
    24      3.460364  2 H  s                 32     -3.271372  3 H  s          
    40     -3.271372  4 H  s                 76      3.254956  6 Cl s          
    22      2.552349  1 C  dzz                3      2.236225  1 C  s          
    75      2.242851  6 Cl s                  8     -1.904123  1 C  px         
    74     -1.876547  6 Cl s                 95     -1.551373  6 Cl dxx        

 Vector   68  Occ=0.000000D+00  E= 1.097692D+00  Symmetry=a'
              MO Center=  1.1D-01, -7.4D-01,  6.6D-14, r^2= 4.8D+00
   Bfn.  Coefficient  Atom+Function         Bfn.  Coefficient  Atom+Function  
  ----- ------------  ---------------      ----- ------------  ---------------
     3      9.940418  1 C  s                 32     -7.690731  3 H  s          
    40     -7.690731  4 H  s                  4      5.295313  1 C  s          
    76     -4.468295  6 Cl s                 22      2.817181  1 C  dzz        
    74      1.977470  6 Cl s                 75     -1.747678  6 Cl s          
   100      1.695749  6 Cl dzz                8     -1.686519  1 C  px         

 Vector   69  Occ=0.000000D+00  E= 1.173603D+00  Symmetry=a'
              MO Center=  9.3D-02, -6.4D-01,  2.2D-13, r^2= 4.8D+00
   Bfn.  Coefficient  Atom+Function         Bfn.  Coefficient  Atom+Function  
  ----- ------------  ---------------      ----- ------------  ---------------
     3     22.872394  1 C  s                 32    -11.512478  3 H  s          
    40    -11.512478  4 H  s                  4     -6.566722  1 C  s          
    22      4.835878  1 C  dzz               20      4.523813  1 C  dyy        
    24     -3.918598  2 H  s                 17      3.492002  1 C  dxx        
    38      2.878068  3 H  pz                46     -2.878068  4 H  pz         

 Vector   70  Occ=0.000000D+00  E= 1.178914D+00  Symmetry=a"
              MO Center= -1.2D-02, -9.6D-01, -1.1D-14, r^2= 4.2D+00
   Bfn.  Coefficient  Atom+Function         Bfn.  Coefficient  Atom+Function  
  ----- ------------  ---------------      ----- ------------  ---------------
    32      6.341354  3 H  s                 40     -6.341354  4 H  s          
    10     -3.987587  1 C  pz                19      3.253572  1 C  dxz        
    38     -2.077707  3 H  pz                46     -2.077707  4 H  pz         
    85     -1.633003  6 Cl pz                21     -1.584969  1 C  dyz        
    82      1.259596  6 Cl pz                30     -1.185991  2 H  pz         

 Vector   71  Occ=0.000000D+00  E= 1.206588D+00  Symmetry=a'
              MO Center= -6.9D-02, -8.3D-01, -2.8D-13, r^2= 4.4D+00
   Bfn.  Coefficient  Atom+Function         Bfn.  Coefficient  Atom+Function  
  ----- ------------  ---------------      ----- ------------  ---------------
     3     35.805626  1 C  s                 32    -15.272912  3 H  s          
    40    -15.272912  4 H  s                 24    -11.486021  2 H  s          
    22      7.693616  1 C  dzz                4     -6.811510  1 C  s          
    20      4.479695  1 C  dyy               28      3.689545  2 H  px         
    17      3.346516  1 C  dxx               75     -3.154683  6 Cl s          

 Vector   72  Occ=0.000000D+00  E= 1.225963D+00  Symmetry=a"
              MO Center= -6.9D-02,  1.5D-01, -1.9D-13, r^2= 3.7D+00
   Bfn.  Coefficient  Atom+Function         Bfn.  Coefficient  Atom+Function  
  ----- ------------  ---------------      ----- ------------  ---------------
    19      8.975647  1 C  dxz               32      8.010216  3 H  s          
    40     -8.010216  4 H  s                 10     -5.598384  1 C  pz         
    30     -2.445138  2 H  pz                38     -2.146152  3 H  pz         
    46     -2.146152  4 H  pz                36     -1.668063  3 H  px         
    44      1.668063  4 H  px                31      0.967111  3 H  s          

 Vector   73  Occ=0.000000D+00  E= 1.304178D+00  Symmetry=a'
              MO Center=  1.7D-01,  4.7D-02,  2.7D-13, r^2= 4.7D+00
   Bfn.  Coefficient  Atom+Function         Bfn.  Coefficient  Atom+Function  
  ----- ------------  ---------------      ----- ------------  ---------------
     3     43.850634  1 C  s                 32    -21.185343  3 H  s          
    40    -21.185343  4 H  s                 22     12.175460  1 C  dzz        
     4    -11.962883  1 C  s                 24    -11.693930  2 H  s          
    20      7.969608  1 C  dyy               17      6.452376  1 C  dxx        
    38      4.025028  3 H  pz                46     -4.025028  4 H  pz         

 Vector   74  Occ=0.000000D+00  E= 1.484947D+00  Symmetry=a"
              MO Center= -1.3D-01,  1.2D+00, -5.4D-15, r^2= 2.5D+00
   Bfn.  Coefficient  Atom+Function         Bfn.  Coefficient  Atom+Function  
  ----- ------------  ---------------      ----- ------------  ---------------
    19      2.873516  1 C  dxz               21      1.015780  1 C  dyz        
    32      0.897160  3 H  s                 40     -0.897160  4 H  s          
    36     -0.792215  3 H  px                44      0.792215  4 H  px         
    30     -0.705050  2 H  pz                56      0.670884  5 F  pz         
    15     -0.656652  1 C  dyz               53      0.513111  5 F  pz         

 Vector   75  Occ=0.000000D+00  E= 1.493905D+00  Symmetry=a'
              MO Center=  3.1D-01,  9.4D-01,  6.1D-15, r^2= 2.3D+00
   Bfn.  Coefficient  Atom+Function         Bfn.  Coefficient  Atom+Function  
  ----- ------------  ---------------      ----- ------------  ---------------
     3      9.452244  1 C  s                 32     -3.969681  3 H  s          
    40     -3.969681  4 H  s                 24     -3.185970  2 H  s          
    22      2.323962  1 C  dzz                4     -1.534474  1 C  s          
    20      1.288238  1 C  dyy               28      1.189888  2 H  px         
    17      0.787428  1 C  dxx               18      0.774117  1 C  dxy        

 Vector   76  Occ=0.000000D+00  E= 1.521674D+00  Symmetry=a'
              MO Center= -4.7D-02,  1.7D+00,  2.4D-15, r^2= 3.1D+00
   Bfn.  Coefficient  Atom+Function         Bfn.  Coefficient  Atom+Function  
  ----- ------------  ---------------      ----- ------------  ---------------
     3      9.003685  1 C  s                 32     -3.868469  3 H  s          
    40     -3.868469  4 H  s                 24     -2.512598  2 H  s          
    18     -2.453048  1 C  dxy               22      2.244088  1 C  dzz        
     4     -1.864386  1 C  s                 20      1.439894  1 C  dyy        
    54      1.240084  5 F  px                28      1.091154  2 H  px         

 Vector   77  Occ=0.000000D+00  E= 1.554669D+00  Symmetry=a"
              MO Center=  6.1D-02,  1.2D+00,  3.6D-14, r^2= 3.2D+00
   Bfn.  Coefficient  Atom+Function         Bfn.  Coefficient  Atom+Function  
  ----- ------------  ---------------      ----- ------------  ---------------
    21      3.796929  1 C  dyz               19     -1.658404  1 C  dxz        
    56     -1.068982  5 F  pz                37     -0.924169  3 H  py         
    45      0.924169  4 H  py                99      0.682230  6 Cl dyz        
    15     -0.664041  1 C  dyz               53     -0.631372  5 F  pz         
    85      0.628149  6 Cl pz                30      0.447974  2 H  pz         

 Vector   78  Occ=0.000000D+00  E= 1.558604D+00  Symmetry=a'
              MO Center= -4.3D-02, -7.1D-01, -4.0D-14, r^2= 3.6D+00
   Bfn.  Coefficient  Atom+Function         Bfn.  Coefficient  Atom+Function  
  ----- ------------  ---------------      ----- ------------  ---------------
     3      4.675236  1 C  s                 75      3.437154  6 Cl s          
    84      3.093525  6 Cl py                32     -3.075130  3 H  s          
    40     -3.075130  4 H  s                  4     -2.619226  1 C  s          
     9      2.413001  1 C  py                20     -2.392506  1 C  dyy        
    22      1.883638  1 C  dzz               50      1.768991  5 F  s          

 Vector   79  Occ=0.000000D+00  E= 1.618687D+00  Symmetry=a"
              MO Center= -2.1D-02,  7.4D-01, -1.6D-15, r^2= 2.3D+00
   Bfn.  Coefficient  Atom+Function         Bfn.  Coefficient  Atom+Function  
  ----- ------------  ---------------      ----- ------------  ---------------
    19      3.074884  1 C  dxz               30     -1.629194  2 H  pz         
    21      1.185223  1 C  dyz               32      1.086437  3 H  s          
    40     -1.086437  4 H  s                 10      0.720882  1 C  pz         
    33     -0.558030  3 H  px                41      0.558030  4 H  px         
    13     -0.507610  1 C  dxz               56     -0.496279  5 F  pz         

 Vector   80  Occ=0.000000D+00  E= 1.767462D+00  Symmetry=a'
              MO Center= -9.9D-03,  1.1D+00, -5.4D-14, r^2= 3.0D+00
[...]
           0.000000000000           0.000000000000         825.835630457779

 Rotational Constants
 --------------------
 A=   4.778786 cm-1  (  6.875454 K)
 B=   0.072897 cm-1  (  0.104880 K)
 C=   0.072896 cm-1  (  0.104879 K)


 Temperature                      =   298.15K
 frequency scaling parameter      =   1.0000

 Zero-Point correction to Energy  =   23.483 kcal/mol  (  0.037422 au)
 Thermal correction to Energy     =   26.280 kcal/mol  (  0.041880 au)
 Thermal correction to Enthalpy   =   26.873 kcal/mol  (  0.042824 au)

 Total Entropy                    =   67.986 cal/mol-K
   - Translational                =   38.594 cal/mol-K (mol. weight =  68.9907)
   - Rotational                   =   23.656 cal/mol-K (symmetry #  =        1)
   - Vibrational                  =    5.736 cal/mol-K

 Cv (constant volume heat capacity) =   12.623 cal/mol-K
   - Translational                  =    2.979 cal/mol-K
   - Rotational                     =    2.979 cal/mol-K
   - Vibrational                    =    6.664 cal/mol-K



          -------------------------------------------------
          NORMAL MODE EIGENVECTORS IN CARTESIAN COORDINATES
          -------------------------------------------------
             (Projected Frequencies expressed in cm-1)

                    1           2           3           4           5           6
 
 P.Frequency     -489.10       -0.00       -0.00       -0.00        0.00        0.00
 
           1     0.00315     0.00001     0.10826     0.06432     0.00023    -0.00054
           2     0.25828     0.12039     0.00031    -0.00028     0.00010     0.00011
           3     0.00000     0.00005     0.00004    -0.00014     0.05705    -0.10232
           4     0.01507     0.00001     0.11126     0.06160     0.00023    -0.00054
           5     0.00994     0.12036    -0.05227     0.04746     0.00006     0.00011
           6    -0.00000     0.00012    -0.00568    -0.00377     0.14695    -0.27573
           7    -0.00166    -0.00004     0.11630     0.06465    -0.08006     0.14712
           8     0.01417     0.12033     0.02663    -0.02410     0.04331     0.04335
           9     0.01071     0.00003     0.00291     0.00166     0.00771    -0.01990
          10    -0.00166     0.00006     0.10639     0.05838     0.08053    -0.14820
          11     0.01417     0.12048     0.02663    -0.02423    -0.04308    -0.04312
          12    -0.01071     0.00003     0.00291     0.00166     0.00771    -0.01990
          13    -0.00182     0.00007     0.20745    -0.02572     0.00030    -0.00053
          14    -0.08142     0.12039    -0.00032     0.00030     0.00010     0.00011
          15     0.00000     0.00022    -0.00002    -0.00033    -0.03594    -0.19858
          16    -0.00043    -0.00005     0.00015     0.16245     0.00016    -0.00054
          17    -0.04550     0.12039    -0.00003     0.00004     0.00010     0.00011
          18     0.00000    -0.00013    -0.00000    -0.00001     0.16023    -0.00076

                    7           8           9          10          11          12
 
 P.Frequency        0.00      230.17      230.48      258.41      955.75      967.67
 
           1     0.00137     0.00000    -0.22160     0.02592    -0.00000    -0.01939
           2     0.00001    -0.00000     0.00745     0.03077    -0.00000    -0.00188
           3    -0.04638     0.22316    -0.00000     0.00000    -0.01990     0.00000
           4     0.00138     0.00000    -0.22804     0.02855     0.00000     0.02511
           5    -0.00022     0.00000     0.01700     0.02437    -0.00000    -0.78884
           6     0.49439     0.24425     0.00000     0.00000     0.06366    -0.00000
           7    -0.46717    -0.00747    -0.23148     0.02672     0.01613     0.05079
           8     0.00687    -0.01030    -0.00119     0.02586    -0.69763     0.41962
           9    -0.31767     0.22541    -0.00141     0.00184     0.03499     0.01314
          10     0.46993     0.00747    -0.23148     0.02672    -0.01613     0.05079
          11    -0.00662     0.01030    -0.00119     0.02586     0.69763     0.41962
          12    -0.31767     0.22541     0.00141    -0.00184     0.03499    -0.01314
          13     0.00180     0.00000     0.09291    -0.01069    -0.00000    -0.01349
          14     0.00000    -0.00000     0.01899     0.17358    -0.00000    -0.00058
          15    -0.05457    -0.09352    -0.00000    -0.00000    -0.01350     0.00000
          16     0.00089     0.00000     0.04548    -0.00545     0.00000     0.01033
          17     0.00001    -0.00000    -0.01329    -0.10705    -0.00000    -0.00049
          18    -0.02682    -0.04580    -0.00000    -0.00000     0.01031    -0.00000

                   13          14          15          16          17          18
 
 P.Frequency     1145.01     1357.31     1360.63     3171.25     3378.62     3378.83
 
           1     0.00265    -0.08842    -0.00000    -0.00015    -0.00000    -0.09740
           2    -0.03276    -0.00083    -0.00000    -0.00707     0.00000     0.00002
           3    -0.00000    -0.00000     0.08820    -0.00000    -0.09738     0.00000
           4    -0.02841    -0.08726    -0.00000     0.57498     0.00000     0.76378
           5     0.58368     0.07862     0.00000     0.02859     0.00000     0.04286
           6    -0.00000     0.00000    -0.76576    -0.00000    -0.00644     0.00000
           7     0.00508     0.55346    -0.36936    -0.28647    -0.33399     0.18615
           8     0.54902    -0.02596    -0.06452     0.02855     0.03716    -0.02136
           9    -0.03186     0.36833    -0.12648     0.49722     0.57158    -0.33455
          10     0.00508     0.55346     0.36936    -0.28647     0.33399     0.18615
          11     0.54902    -0.02596     0.06452     0.02855    -0.03716    -0.02136
          12     0.03186    -0.36833    -0.12648    -0.49722     0.57158     0.33455
          13    -0.00005     0.00151     0.00000     0.00000     0.00000     0.00064
          14    -0.03197    -0.00055    -0.00000    -0.00050     0.00000    -0.00005
          15     0.00000    -0.00000    -0.00158     0.00000     0.00060    -0.00000
          16    -0.00035     0.00013     0.00000    -0.00001     0.00000     0.00034
          17    -0.01986    -0.00019    -0.00000     0.00023    -0.00000     0.00001
          18     0.00000    -0.00000    -0.00004     0.00000     0.00033    -0.00000



 ----------------------------------------------------------------------------
 Normal Eigenvalue ||    Projected Derivative Dipole Moments (debye/angs)
  Mode   [cm**-1]  ||      [d/dqX]             [d/dqY]           [d/dqZ]
 ------ ---------- || ------------------ ------------------ -----------------
    1     -489.104 ||       0.017               6.272            -0.000
    2       -0.000 ||      -0.000              -0.578            -0.000
    3       -0.000 ||      -0.559               0.003             0.000
    4       -0.000 ||      -0.274              -0.003             0.001
    5        0.000 ||      -0.001              -0.000            -0.242
    6        0.000 ||      -0.003               0.001            -0.539
    7        0.000 ||      -0.007              -0.000             0.197
    8      230.168 ||      -0.000              -0.000             0.907
    9      230.476 ||      -0.900               0.036             0.000
   10      258.409 ||       0.092              -0.390             0.000
   11      955.748 ||       0.000              -0.000             0.156
   12      967.666 ||       0.156              -0.045            -0.000
   13     1145.013 ||      -0.007              -1.338            -0.000
   14     1357.311 ||       0.527              -0.041             0.000
   15     1360.628 ||       0.000              -0.000            -0.472
   16     3171.253 ||       0.007               0.088            -0.000
   17     3378.616 ||       0.000               0.000             0.302
   18     3378.832 ||       0.331              -0.006            -0.000
 ----------------------------------------------------------------------------



  
  
 ----------------------------------------------------------------------------
 Normal Eigenvalue ||           Projected Infra Red Intensities
  Mode   [cm**-1]  || [atomic units] [(debye/angs)**2] [(KM/mol)] [arbitrary]
 ------ ---------- || -------------- ----------------- ---------- -----------
    1     -489.104 ||    1.705281          39.342      1662.392     158.083
    2       -0.000 ||    0.014498           0.334        14.133       1.344
    3       -0.000 ||    0.013524           0.312        13.184       1.254
    4       -0.000 ||    0.003253           0.075         3.171       0.302
    5        0.000 ||    0.002533           0.058         2.469       0.235
    6        0.000 ||    0.012609           0.291        12.292       1.169
    7        0.000 ||    0.001681           0.039         1.638       0.156
    8      230.168 ||    0.035638           0.822        34.741       3.304
    9      230.476 ||    0.035136           0.811        34.252       3.257
   10      258.409 ||    0.006967           0.161         6.791       0.646
   11      955.748 ||    0.001051           0.024         1.025       0.097
   12      967.666 ||    0.001140           0.026         1.111       0.106
   13     1145.013 ||    0.077581           1.790        75.629       7.192
   14     1357.311 ||    0.012112           0.279        11.808       1.123
   15     1360.628 ||    0.009656           0.223         9.413       0.895
   16     3171.253 ||    0.000341           0.008         0.333       0.032
   17     3378.616 ||    0.003946           0.091         3.847       0.366
   18     3378.832 ||    0.004764           0.110         4.644       0.442
 ----------------------------------------------------------------------------






 ===============================================================================
      Negative Nuclear Hessian Mode    1  Eigenvalue =   -489.10 cm**(-1)
 -------------------------------------------------------------------------------
   Raw step length:  0.146 angstroms ;  The Raw step for this mode is:
    1 C                    6.0000    -0.00166746    -0.13667588    -0.00000000
    2 H                    1.0000    -0.00797562    -0.00525817     0.00000000
    3 H                    1.0000     0.00087831    -0.00750047    -0.00566490
    4 H                    1.0000     0.00087831    -0.00750047     0.00566490
    5 F                    9.0000     0.00096109     0.04308541    -0.00000000
    6 Cl                  17.0000     0.00022929     0.02407784    -0.00000000


  Geometry after  100.0% step for mode  1; Step length =  0.146 angstroms 
   Maximum component (any atom: x,y, or z) displacement:  0.258
    1 C                    6.0000     0.04438208     0.38343713    -0.00000000
    2 H                    1.0000     1.11807526     0.57647650     0.00000000
    3 H                    1.0000    -0.49353834     0.57601593     0.92933207
    4 H                    1.0000    -0.49353834     0.57601593    -0.92933207
    5 F                    9.0000     0.05997441     2.60042732    -0.00000000
    6 Cl                  17.0000     0.05334941    -1.67615628    -0.00000000


  Geometry after -100.0% step for mode  1; Step length =  0.146 angstroms 
   Maximum component (any atom: x,y, or z) displacement:  0.258
    1 C                    6.0000     0.04771700     0.65678889     0.00000000
    2 H                    1.0000     1.13402650     0.58699284    -0.00000000
    3 H                    1.0000    -0.49529496     0.59101688     0.94066187
    4 H                    1.0000    -0.49529496     0.59101688    -0.94066187
    5 F                    9.0000     0.05805222     2.51425651     0.00000000
    6 Cl                  17.0000     0.05289083    -1.72431196     0.00000000


  Geometry after   50.0% step for mode  1; Step length =  0.073 angstroms 
   Maximum component (any atom: x,y, or z) displacement:  0.129
    1 C                    6.0000     0.04521581     0.45177507    -0.00000000
    2 H                    1.0000     1.12206307     0.57910558     0.00000000
    3 H                    1.0000    -0.49397750     0.57976617     0.93216452
    4 H                    1.0000    -0.49397750     0.57976617    -0.93216452
    5 F                    9.0000     0.05949386     2.57888461    -0.00000000
    6 Cl                  17.0000     0.05323476    -1.68819520    -0.00000000


  Geometry after  -50.0% step for mode  1; Step length =  0.073 angstroms 
   Maximum component (any atom: x,y, or z) displacement:  0.129
    1 C                    6.0000     0.04688327     0.58845095     0.00000000
    2 H                    1.0000     1.13003869     0.58436375    -0.00000000
    3 H                    1.0000    -0.49485581     0.58726664     0.93782942
    4 H                    1.0000    -0.49485581     0.58726664    -0.93782942
    5 F                    9.0000     0.05853277     2.53579921     0.00000000
    6 Cl                  17.0000     0.05300547    -1.71227304     0.00000000


  Geometry after   77.4% step for mode  1; Step length =  0.113 angstroms 
   Maximum component (any atom: x,y, or z) displacement:  0.200
    1 C                    6.0000     0.04475834     0.41427756    -0.00000000
    2 H                    1.0000     1.11987493     0.57766298     0.00000000
    3 H                    1.0000    -0.49373653     0.57770838     0.93061034
    4 H                    1.0000    -0.49373653     0.57770838    -0.93061034
    5 F                    9.0000     0.05975754     2.59070525    -0.00000000
    6 Cl                  17.0000     0.05329767    -1.68158936    -0.00000000


  Geometry after  -77.4% step for mode  1; Step length =  0.113 angstroms 
   Maximum component (any atom: x,y, or z) displacement:  0.200
    1 C                    6.0000     0.04734075     0.62594846     0.00000000
    2 H                    1.0000     1.13222683     0.58580635    -0.00000000
    3 H                    1.0000    -0.49509678     0.58932442     0.93938361
    4 H                    1.0000    -0.49509678     0.58932442    -0.93938361
    5 F                    9.0000     0.05826909     2.52397858     0.00000000
    6 Cl                  17.0000     0.05294257    -1.71887888     0.00000000


  Geometry after   38.7% step for mode  1; Step length =  0.057 angstroms 
   Maximum component (any atom: x,y, or z) displacement:  0.100
    1 C                    6.0000     0.04540394     0.46719528    -0.00000000
    2 H                    1.0000     1.12296291     0.57969883     0.00000000
    3 H                    1.0000    -0.49407659     0.58061239     0.93280366
    4 H                    1.0000    -0.49407659     0.58061239    -0.93280366
    5 F                    9.0000     0.05938543     2.57402358    -0.00000000
    6 Cl                  17.0000     0.05320889    -1.69091174    -0.00000000


  Geometry after  -38.7% step for mode  1; Step length =  0.057 angstroms 
   Maximum component (any atom: x,y, or z) displacement:  0.100
    1 C                    6.0000     0.04669514     0.57303073     0.00000000
    2 H                    1.0000     1.12913886     0.58377051    -0.00000000
    3 H                    1.0000    -0.49475671     0.58642041     0.93719029
    4 H                    1.0000    -0.49475671     0.58642041    -0.93719029
    5 F                    9.0000     0.05864120     2.54066024     0.00000000
    6 Cl                  17.0000     0.05303134    -1.70955650     0.00000000


 vib:animation  F

 Task  times  cpu:     3268.3s     wall:     1399.1s
 Summary of allocated global arrays
-----------------------------------
  No active global arrays


MA_summarize_allocated_blocks: starting scan ...
MA_summarize_allocated_blocks: scan completed: 0 heap blocks, 0 stack blocks
MA usage statistics:

	allocation statistics:
					      heap	     stack
					      ----	     -----
	current number of blocks	         0	         0
	maximum number of blocks	        27	        57
	current total bytes		         0	         0
	maximum total bytes		 241376704	  33097464
	maximum total K-bytes		    241377	     33098
	maximum total M-bytes		       242	        34


                                NWChem Input Module
                                -------------------




                                     CITATION
                                     --------
                Please cite the following reference when publishing
                           results obtained with NWChem:

          E. Apra, E. J. Bylaska, W. A. de Jong, N. Govind, K. Kowalski,
       T. P. Straatsma, M. Valiev, H. J. J. van Dam, Y. Alexeev, J. Anchell,
       V. Anisimov, F. W. Aquino, R. Atta-Fynn, J. Autschbach, N. P. Bauman,
     J. C. Becca, D. E. Bernholdt, K. Bhaskaran-Nair, S. Bogatko, P. Borowski,
         J. Boschen, J. Brabec, A. Bruner, E. Cauet, Y. Chen, G. N. Chuev,
      C. J. Cramer, J. Daily, M. J. O. Deegan, T. H. Dunning Jr., M. Dupuis,
   K. G. Dyall, G. I. Fann, S. A. Fischer, A. Fonari, H. Fruchtl, L. Gagliardi,
      J. Garza, N. Gawande, S. Ghosh, K. Glaesemann, A. W. Gotz, J. Hammond,
       V. Helms, E. D. Hermes, K. Hirao, S. Hirata, M. Jacquelin, L. Jensen,
   B. G. Johnson, H. Jonsson, R. A. Kendall, M. Klemm, R. Kobayashi, V. Konkov,
      S. Krishnamoorthy, M. Krishnan, Z. Lin, R. D. Lins, R. J. Littlefield,
      A. J. Logsdail, K. Lopata, W. Ma, A. V. Marenich, J. Martin del Campo,
   D. Mejia-Rodriguez, J. E. Moore, J. M. Mullin, T. Nakajima, D. R. Nascimento,
    J. A. Nichols, P. J. Nichols, J. Nieplocha, A. Otero-de-la-Roza, B. Palmer,
    A. Panyala, T. Pirojsirikul, B. Peng, R. Peverati, J. Pittner, L. Pollack,
   R. M. Richard, P. Sadayappan, G. C. Schatz, W. A. Shelton, D. W. Silverstein,
   D. M. A. Smith, T. A. Soares, D. Song, M. Swart, H. L. Taylor, G. S. Thomas,
            V. Tipparaju, D. G. Truhlar, K. Tsemekhman, T. Van Voorhis,
      A. Vazquez-Mayagoitia, P. Verma, O. Villa, A. Vishnu, K. D. Vogiatzis,
        D. Wang, J. H. Weare, M. J. Williamson, T. L. Windus, K. Wolinski,
        A. T. Wong, Q. Wu, C. Yang, Q. Yu, M. Zacharias, Z. Zhang, Y. Zhao,
                                and R. J. Harrison
                        "NWChem: Past, present, and future
                         J. Chem. Phys. 152, 184102 (2020)
                               doi:10.1063/5.0004997

                                      AUTHORS
                                      -------
  E. Apra, E. J. Bylaska, N. Govind, K. Kowalski, M. Valiev, D. Mejia-Rodriguez,
       A. Kunitsa, N. P. Bauman, A. Panyala, W. A. de Jong, T. P. Straatsma,
   H. J. J. van Dam, D. Wang, T. L. Windus, J. Hammond, J. Autschbach, A. Woods,
    K. Bhaskaran-Nair, J. Brabec, K. Lopata, S. A. Fischer, S. Krishnamoorthy,
     M. Jacquelin, W. Ma, M. Klemm, O. Villa, Y. Chen, V. Anisimov, F. Aquino,
     S. Hirata, M. T. Hackler, E. Hermes, L. Jensen, J. E. Moore, J. C. Becca,
      V. Konjkov, T. Risthaus, M. Malagoli, A. Marenich, A. Otero-de-la-Roza,
        J. Mullin, P. Nichols, R. Peverati, J. Pittner, Y. Zhao, P.-D. Fan,
        A. Fonari, M. J. Williamson, R. J. Harrison, J. R. Rehr, M. Dupuis,
     D. Silverstein, D. M. A. Smith, J. Nieplocha, V. Tipparaju, M. Krishnan,
     B. E. Van Kuiken, A. Vazquez-Mayagoitia, M. Swart, Q. Wu, T. Van Voorhis,
     A. A. Auer, M. Nooijen, L. D. Crosby, E. Brown, G. Cisneros, G. I. Fann,
   H. Fruchtl, J. Garza, K. Hirao, R. A. Kendall, J. A. Nichols, K. Tsemekhman,
    K. Wolinski, J. Anchell, D. E. Bernholdt, P. Borowski, T. Clark, D. Clerc,
   H. Dachsel, M. J. O. Deegan, K. Dyall, D. Elwood, E. Glendening, M. Gutowski,
   A. C. Hess, J. Jaffe, B. G. Johnson, J. Ju, R. Kobayashi, R. Kutteh, Z. Lin,
   R. Littlefield, X. Long, B. Meng, T. Nakajima, S. Niu, L. Pollack, M. Rosing,
   K. Glaesemann, G. Sandrone, M. Stave, H. Taylor, G. Thomas, J. H. van Lenthe,
                               A. T. Wong, Z. Zhang.

 Total times  cpu:     3946.4s     wall:     1705.8s
